   4   4   0   0
  0.3049851E+02  0.2571700E-09  0.2571700E-09  0.2129940E-08  0.1000000E-15
  1.000000000000000E-004
  CAR 
 Cu111                                   
     12.20791165    -10.75823532  301      0.02767446      1.00000000
    -10.758  0.0000E+00  0.0000E+00
    -10.682  0.0000E+00  0.0000E+00
    -10.605  0.0000E+00  0.0000E+00
    -10.529  0.0000E+00  0.0000E+00
    -10.452  0.0000E+00  0.0000E+00
    -10.375 -0.1414E-28 -0.1083E-29
    -10.299 -0.5665E-26 -0.4348E-27
    -10.222 -0.1691E-23 -0.1299E-24
    -10.146 -0.3755E-21 -0.2888E-22
    -10.069 -0.6199E-19 -0.4774E-20
     -9.993 -0.7603E-17 -0.5868E-18
     -9.916 -0.6754E-15 -0.5229E-16
     -9.840 -0.4523E-13 -0.3515E-14
     -9.763 -0.2254E-11 -0.1760E-12
     -9.686 -0.8303E-10 -0.6532E-11
     -9.610 -0.2257E-08 -0.1793E-09
     -9.533 -0.4513E-07 -0.3634E-08
     -9.457 -0.6613E-06 -0.5426E-07
     -9.380 -0.7066E-05 -0.5952E-06
     -9.304 -0.5465E-04 -0.4779E-05
     -9.227 -0.3028E-03 -0.2796E-04
     -9.151 -0.1184E-02 -0.1186E-03
     -9.074 -0.3184E-02 -0.3623E-03
     -8.997 -0.5505E-02 -0.7837E-03
     -8.921 -0.4117E-02 -0.1099E-02
     -8.844  0.1003E-01 -0.3312E-03
     -8.768  0.5375E-01  0.3783E-02
     -8.691  0.1426E+00  0.1470E-01
     -8.615  0.2499E+00  0.3383E-01
     -8.538  0.2916E+00  0.5615E-01
     -8.462  0.2206E+00  0.7304E-01
     -8.385  0.1209E+00  0.8230E-01
     -8.309  0.1205E+00  0.9152E-01
     -8.232  0.2333E+00  0.1094E+00
     -8.155  0.3601E+00  0.1369E+00
     -8.079  0.4156E+00  0.1688E+00
     -8.002  0.3761E+00  0.1976E+00
     -7.926  0.2522E+00  0.2169E+00
     -7.849  0.9438E-01  0.2241E+00
     -7.773 -0.1690E-01  0.2228E+00
     -7.696 -0.8788E-02  0.2221E+00
     -7.620  0.1592E+00  0.2343E+00
     -7.543  0.4275E+00  0.2670E+00
     -7.466  0.6128E+00  0.3140E+00
     -7.390  0.6048E+00  0.3603E+00
     -7.313  0.5218E+00  0.4002E+00
     -7.237  0.5017E+00  0.4386E+00
     -7.160  0.4884E+00  0.4760E+00
     -7.084  0.3930E+00  0.5061E+00
     -7.007  0.2851E+00  0.5279E+00
     -6.931  0.2766E+00  0.5491E+00
     -6.854  0.3683E+00  0.5773E+00
     -6.777  0.5040E+00  0.6159E+00
     -6.701  0.6472E+00  0.6654E+00
     -6.624  0.7586E+00  0.7235E+00
     -6.548  0.7760E+00  0.7829E+00
     -6.471  0.6683E+00  0.8341E+00
     -6.395  0.5297E+00  0.8746E+00
     -6.318  0.5189E+00  0.9143E+00
     -6.242  0.6304E+00  0.9626E+00
     -6.165  0.6961E+00  0.1016E+01
     -6.088  0.6351E+00  0.1064E+01
     -6.012  0.5029E+00  0.1103E+01
     -5.935  0.3511E+00  0.1130E+01
     -5.859  0.2399E+00  0.1148E+01
     -5.782  0.3084E+00  0.1172E+01
     -5.706  0.6516E+00  0.1222E+01
     -5.629  0.1164E+01  0.1311E+01
     -5.553  0.1595E+01  0.1433E+01
     -5.476  0.1720E+01  0.1565E+01
     -5.399  0.1496E+01  0.1679E+01
     -5.323  0.1153E+01  0.1767E+01
     -5.246  0.9700E+00  0.1842E+01
     -5.170  0.8834E+00  0.1909E+01
     -5.093  0.6537E+00  0.1959E+01
     -5.017  0.4837E+00  0.1996E+01
     -4.940  0.1030E+01  0.2075E+01
     -4.864  0.2452E+01  0.2263E+01
     -4.787  0.3822E+01  0.2555E+01
     -4.710  0.4126E+01  0.2871E+01
     -4.634  0.3540E+01  0.3142E+01
     -4.557  0.2967E+01  0.3369E+01
     -4.481  0.2861E+01  0.3588E+01
     -4.404  0.3200E+01  0.3833E+01
     -4.328  0.3979E+01  0.4138E+01
     -4.251  0.5163E+01  0.4533E+01
     -4.175  0.6485E+01  0.5030E+01
     -4.098  0.7516E+01  0.5605E+01
     -4.021  0.7994E+01  0.6217E+01
     -3.945  0.7940E+01  0.6825E+01
     -3.868  0.7484E+01  0.7398E+01
     -3.792  0.6912E+01  0.7927E+01
     -3.715  0.6763E+01  0.8445E+01
     -3.639  0.7320E+01  0.9005E+01
     -3.562  0.8195E+01  0.9632E+01
     -3.486  0.8816E+01  0.1031E+02
     -3.409  0.8995E+01  0.1100E+02
     -3.333  0.8853E+01  0.1167E+02
     -3.256  0.8647E+01  0.1234E+02
     -3.179  0.8806E+01  0.1301E+02
     -3.103  0.9656E+01  0.1375E+02
     -3.026  0.1100E+02  0.1459E+02
     -2.950  0.1245E+02  0.1554E+02
     -2.873  0.1412E+02  0.1662E+02
     -2.797  0.1609E+02  0.1786E+02
     -2.720  0.1768E+02  0.1921E+02
     -2.644  0.1808E+02  0.2059E+02
     -2.567  0.1732E+02  0.2192E+02
     -2.490  0.1603E+02  0.2315E+02
     -2.414  0.1499E+02  0.2429E+02
     -2.337  0.1473E+02  0.2542E+02
     -2.261  0.1474E+02  0.2655E+02
     -2.184  0.1407E+02  0.2763E+02
     -2.108  0.1303E+02  0.2862E+02
     -2.031  0.1311E+02  0.2963E+02
     -1.955  0.1466E+02  0.3075E+02
     -1.878  0.1637E+02  0.3200E+02
     -1.801  0.1745E+02  0.3334E+02
     -1.725  0.1891E+02  0.3479E+02
     -1.648  0.2127E+02  0.3641E+02
     -1.572  0.2265E+02  0.3815E+02
     -1.495  0.2062E+02  0.3973E+02
     -1.419  0.1526E+02  0.4090E+02
     -1.342  0.9264E+01  0.4161E+02
     -1.266  0.5115E+01  0.4200E+02
     -1.189  0.3187E+01  0.4224E+02
     -1.112  0.2339E+01  0.4242E+02
     -1.036  0.1554E+01  0.4254E+02
     -0.959  0.7555E+00  0.4260E+02
     -0.883  0.4588E+00  0.4263E+02
     -0.806  0.9426E+00  0.4270E+02
     -0.730  0.1825E+01  0.4284E+02
     -0.653  0.2385E+01  0.4303E+02
     -0.577  0.2208E+01  0.4320E+02
     -0.500  0.1479E+01  0.4331E+02
     -0.423  0.7058E+00  0.4336E+02
     -0.347  0.2955E+00  0.4339E+02
     -0.270  0.4421E+00  0.4342E+02
     -0.194  0.1128E+01  0.4351E+02
     -0.117  0.2002E+01  0.4366E+02
     -0.041  0.2468E+01  0.4385E+02
      0.036  0.2191E+01  0.4402E+02
      0.112  0.1445E+01  0.4413E+02
      0.189  0.8352E+00  0.4419E+02
      0.266  0.7756E+00  0.4425E+02
      0.342  0.1211E+01  0.4434E+02
      0.419  0.1752E+01  0.4448E+02
      0.495  0.2014E+01  0.4463E+02
      0.572  0.1845E+01  0.4477E+02
      0.648  0.1339E+01  0.4487E+02
      0.725  0.7387E+00  0.4493E+02
      0.801  0.2677E+00  0.4495E+02
      0.878  0.3246E-01  0.4495E+02
      0.954  0.6747E-01  0.4496E+02
      1.031  0.4170E+00  0.4499E+02
      1.108  0.1176E+01  0.4508E+02
      1.184  0.2336E+01  0.4526E+02
      1.261  0.3422E+01  0.4552E+02
      1.337  0.3615E+01  0.4580E+02
      1.414  0.2666E+01  0.4600E+02
      1.490  0.1321E+01  0.4610E+02
      1.567  0.4974E+00  0.4614E+02
      1.643  0.3408E+00  0.4617E+02
      1.720  0.3977E+00  0.4620E+02
      1.797  0.3640E+00  0.4623E+02
      1.873  0.3308E+00  0.4625E+02
      1.950  0.4647E+00  0.4629E+02
      2.026  0.7982E+00  0.4635E+02
      2.103  0.1276E+01  0.4645E+02
      2.179  0.1757E+01  0.4658E+02
      2.256  0.2051E+01  0.4674E+02
      2.332  0.2058E+01  0.4689E+02
      2.409  0.1773E+01  0.4703E+02
      2.486  0.1264E+01  0.4713E+02
      2.562  0.7641E+00  0.4719E+02
      2.639  0.5442E+00  0.4723E+02
      2.715  0.6388E+00  0.4728E+02
      2.792  0.8732E+00  0.4734E+02
      2.868  0.1133E+01  0.4743E+02
      2.945  0.1400E+01  0.4754E+02
      3.021  0.1545E+01  0.4766E+02
      3.098  0.1380E+01  0.4776E+02
      3.175  0.9882E+00  0.4784E+02
      3.251  0.7003E+00  0.4789E+02
      3.328  0.7878E+00  0.4795E+02
      3.404  0.1215E+01  0.4804E+02
      3.481  0.1582E+01  0.4816E+02
      3.557  0.1469E+01  0.4828E+02
      3.634  0.9154E+00  0.4835E+02
      3.710  0.3318E+00  0.4837E+02
      3.787  0.8091E-02  0.4837E+02
      3.864 -0.4664E-01  0.4837E+02
      3.940  0.6234E-01  0.4837E+02
      4.017  0.2278E+00  0.4839E+02
      4.093  0.3595E+00  0.4842E+02
      4.170  0.4428E+00  0.4845E+02
      4.246  0.5702E+00  0.4850E+02
      4.323  0.8425E+00  0.4856E+02
      4.399  0.1236E+01  0.4866E+02
      4.476  0.1638E+01  0.4878E+02
      4.553  0.2009E+01  0.4894E+02
      4.629  0.2349E+01  0.4911E+02
      4.706  0.2481E+01  0.4930E+02
      4.782  0.2231E+01  0.4948E+02
      4.859  0.1795E+01  0.4961E+02
      4.935  0.1512E+01  0.4973E+02
      5.012  0.1374E+01  0.4983E+02
      5.088  0.1201E+01  0.4993E+02
      5.165  0.1069E+01  0.5001E+02
      5.242  0.1155E+01  0.5010E+02
      5.318  0.1400E+01  0.5020E+02
      5.395  0.1556E+01  0.5032E+02
      5.471  0.1551E+01  0.5044E+02
      5.548  0.1661E+01  0.5057E+02
      5.624  0.2110E+01  0.5073E+02
      5.701  0.2591E+01  0.5093E+02
      5.777  0.2635E+01  0.5113E+02
      5.854  0.2279E+01  0.5130E+02
      5.930  0.1925E+01  0.5145E+02
      6.007  0.1810E+01  0.5159E+02
      6.084  0.2027E+01  0.5175E+02
      6.160  0.2724E+01  0.5195E+02
      6.237  0.3764E+01  0.5224E+02
      6.313  0.4516E+01  0.5259E+02
      6.390  0.4601E+01  0.5294E+02
      6.466  0.4547E+01  0.5329E+02
      6.543  0.5166E+01  0.5368E+02
      6.619  0.6476E+01  0.5418E+02
      6.696  0.7670E+01  0.5477E+02
      6.773  0.8144E+01  0.5539E+02
      6.849  0.8094E+01  0.5601E+02
      6.926  0.7964E+01  0.5662E+02
      7.002  0.7891E+01  0.5722E+02
      7.079  0.7768E+01  0.5782E+02
      7.155  0.7324E+01  0.5838E+02
      7.232  0.6372E+01  0.5887E+02
      7.308  0.5251E+01  0.5927E+02
      7.385  0.4577E+01  0.5962E+02
      7.462  0.4497E+01  0.5996E+02
      7.538  0.4636E+01  0.6032E+02
      7.615  0.4680E+01  0.6068E+02
      7.691  0.4598E+01  0.6103E+02
      7.768  0.4420E+01  0.6137E+02
      7.844  0.4092E+01  0.6168E+02
      7.921  0.3667E+01  0.6196E+02
      7.997  0.3477E+01  0.6223E+02
      8.074  0.3750E+01  0.6251E+02
      8.151  0.4137E+01  0.6283E+02
      8.227  0.3964E+01  0.6313E+02
      8.304  0.2960E+01  0.6336E+02
      8.380  0.1580E+01  0.6348E+02
      8.457  0.5511E+00  0.6352E+02
      8.533  0.1641E+00  0.6354E+02
      8.610  0.1467E+00  0.6355E+02
      8.686  0.1524E+00  0.6356E+02
      8.763  0.1333E+00  0.6357E+02
      8.840  0.2186E+00  0.6359E+02
      8.916  0.4190E+00  0.6362E+02
      8.993  0.5525E+00  0.6366E+02
      9.069  0.4636E+00  0.6370E+02
      9.146  0.2299E+00  0.6371E+02
      9.222  0.6321E-01  0.6372E+02
      9.299  0.7327E-01  0.6372E+02
      9.375  0.2007E+00  0.6374E+02
      9.452  0.3263E+00  0.6376E+02
      9.529  0.3871E+00  0.6379E+02
      9.605  0.3765E+00  0.6382E+02
      9.682  0.2907E+00  0.6385E+02
      9.758  0.1508E+00  0.6386E+02
      9.835  0.2224E-01  0.6386E+02
      9.911 -0.4129E-01  0.6386E+02
      9.988 -0.9415E-02  0.6385E+02
     10.064  0.1521E+00  0.6387E+02
     10.141  0.4071E+00  0.6390E+02
     10.218  0.5773E+00  0.6394E+02
     10.294  0.5050E+00  0.6398E+02
     10.371  0.2628E+00  0.6400E+02
     10.447  0.5540E-01  0.6400E+02
     10.524 -0.2482E-01  0.6400E+02
     10.600 -0.2545E-01  0.6400E+02
     10.677 -0.1068E-01  0.6400E+02
     10.753 -0.2793E-02  0.6400E+02
     10.830 -0.4994E-03  0.6400E+02
     10.906 -0.6328E-04  0.6400E+02
     10.983 -0.5785E-05  0.6400E+02
     11.060 -0.3854E-06  0.6400E+02
     11.136 -0.1884E-07  0.6400E+02
     11.213 -0.6782E-09  0.6400E+02
     11.289 -0.1804E-10  0.6400E+02
     11.366 -0.3552E-12  0.6400E+02
     11.442 -0.5217E-14  0.6400E+02
     11.519  0.0000E+00  0.6400E+02
     11.595  0.0000E+00  0.6400E+02
     11.672  0.0000E+00  0.6400E+02
     11.749  0.0000E+00  0.6400E+02
     11.825  0.0000E+00  0.6400E+02
     11.902  0.0000E+00  0.6400E+02
     11.978  0.0000E+00  0.6400E+02
     12.055  0.0000E+00  0.6400E+02
     12.131  0.0000E+00  0.6400E+02
     12.208  0.0000E+00  0.6400E+02
