    4    4    1    1
  0.3049851E+02  0.2571700E-09  0.2571700E-09  0.2129940E-08  0.1000000E-15
  1.000000000000000E-004
  CAR 
 Cu111                                   
   44   49   32
 
  0.0000000E+00  0.0000000E+00  0.0000000E+00  0.5917160E-02
   1       -8.758235
   2       -7.436343
   3       -5.773185
   4       -4.978394
   5       -3.004030
   6       -2.914489
   7       -2.914484
   8       -2.887089
   9       -2.867171
  10       -2.867170
  11       -2.591436
  12       -2.565893
  13       -2.565888
  14       -2.501479
  15       -2.501475
  16       -2.091084
  17       -2.091065
  18       -1.940274
  19       -1.940264
  20       -1.609685
  21       -1.609683
  22       -1.504081
  23       -1.504076
  24       -1.072064
  25       -0.066250
  26        4.336260
  27        4.467676
  28        5.756971
  29        6.114766
  30        7.906221
  31        7.407170
  32        8.715933
 
  0.7692308E-01  0.6938894E-17  0.0000000E+00  0.2366864E-01
   1       -8.571638
   2       -7.257602
   3       -5.609698
   4       -4.849566
   5       -3.063700
   6       -3.023363
   7       -2.962573
   8       -2.851167
   9       -2.817444
  10       -2.788844
  11       -2.686687
  12       -2.606548
  13       -2.519583
  14       -2.491544
  15       -2.444783
  16       -2.120191
  17       -2.109811
  18       -1.934368
  19       -1.898840
  20       -1.802256
  21       -1.682700
  22       -1.613241
  23       -1.502907
  24       -0.712717
  25        0.384091
  26        4.484445
  27        4.648217
  28        5.934172
  29        6.263913
  30        7.441940
  31        7.151563
  32        9.001320
 
  0.1538462E+00  0.0000000E+00  0.0000000E+00  0.2366864E-01
   1       -8.024021
   2       -6.741032
   3       -5.157356
   4       -4.504934
   5       -3.277740
   6       -3.172572
   7       -3.102676
   8       -2.810004
   9       -2.736339
  10       -2.706352
  11       -2.703918
  12       -2.666680
  13       -2.528920
  14       -2.419384
  15       -2.292124
  16       -2.232747
  17       -2.106950
  18       -2.089860
  19       -1.972209
  20       -1.923175
  21       -1.623006
  22       -1.499931
  23       -1.488153
  24       -0.072364
  25        1.355389
  26        4.929811
  27        5.189599
  28        6.465623
  29        6.723078
  30        6.885786
  31        6.891842
  32        9.608915
 
  0.2307692E+00 -0.2775558E-16  0.0000000E+00  0.2366864E-01
   1       -7.161564
   2       -5.967819
   3       -4.592379
   4       -4.107656
   5       -3.527621
   6       -3.296385
   7       -3.238841
   8       -2.890193
   9       -2.814252
  10       -2.709069
  11       -2.644122
  12       -2.497909
  13       -2.422701
  14       -2.420584
  15       -2.303491
  16       -2.187648
  17       -2.103295
  18       -1.915049
  19       -1.912733
  20       -1.852201
  21       -1.637542
  22       -1.495106
  23       -1.116850
  24        0.717418
  25        2.595457
  26        5.676327
  27        6.089792
  28        7.345483
  29        7.510405
  30        6.787926
  31        7.007416
  32        8.565072
 
  0.3076923E+00  0.2775558E-16  0.0000000E+00  0.2366864E-01
   1       -6.109287
   2       -5.169263
   3       -4.296093
   4       -3.980883
   5       -3.693399
   6       -3.403689
   7       -3.197089
   8       -2.989291
   9       -2.754171
  10       -2.691632
  11       -2.550871
  12       -2.388248
  13       -2.290912
  14       -2.271864
  15       -2.075912
  16       -1.959234
  17       -1.913748
  18       -1.762267
  19       -1.687331
  20       -1.655413
  21       -1.614658
  22       -1.479787
  23       -0.555691
  24        1.692043
  25        4.039284
  26        6.672032
  27        7.317728
  28        8.061066
  29        7.521803
  30        6.809622
  31        6.410568
  32        7.727166
 
  0.3846154E+00  0.0000000E+00  0.0000000E+00  0.2366864E-01
   1       -5.182897
   2       -4.711761
   3       -4.244931
   4       -4.085559
   5       -3.829182
   6       -3.555450
   7       -3.087123
   8       -2.896985
   9       -2.786135
  10       -2.758050
  11       -2.418009
  12       -2.289992
  13       -1.990564
  14       -1.850176
  15       -1.717506
  16       -1.693116
  17       -1.654080
  18       -1.539799
  19       -1.524296
  20       -1.397589
  21       -1.366611
  22       -1.096762
  23        0.402212
  24        2.730537
  25        5.203167
  26        5.796794
  27        6.654804
  28        8.147980
  29        7.643560
  30        7.314583
  31        7.102379
  32        6.808527
 
  0.4615385E+00 -0.5551115E-16  0.0000000E+00  0.2366864E-01
   1       -4.765590
   2       -4.599096
   3       -4.204157
   4       -4.108308
   5       -3.958304
   6       -3.650596
   7       -3.081626
   8       -2.949903
   9       -2.798626
  10       -2.611805
  11       -2.304235
  12       -2.284605
  13       -1.774719
  14       -1.759616
  15       -1.605188
  16       -1.590352
  17       -1.577153
  18       -1.492932
  19       -1.256140
  20       -1.231020
  21       -0.464854
  22        0.329456
  23        1.349749
  24        2.161450
  25        4.362935
  26        5.358426
  27        6.024422
  28        7.654537
  29        8.174601
  30        7.599434
  31        7.222092
  32        6.875116
 
  0.7692308E-01  0.7692308E-01  0.0000000E+00  0.1183432E-01
   1       -8.204216
   2       -6.909275
   3       -5.299811
   4       -4.610592
   5       -3.190738
   6       -3.151248
   7       -3.067036
   8       -2.792981
   9       -2.743494
  10       -2.730249
  11       -2.715005
  12       -2.690396
  13       -2.534641
  14       -2.425213
  15       -2.343574
  16       -2.171563
  17       -2.112065
  18       -2.082976
  19       -1.953888
  20       -1.835154
  21       -1.728096
  22       -1.528553
  23       -1.494869
  24       -0.257013
  25        1.065007
  26        4.781304
  27        5.009228
  28        6.288600
  29        6.568491
  30        6.956256
  31        6.930377
  32        9.442464
 
  0.1538462E+00  0.7692308E-01  0.0000000E+00  0.2366864E-01
   1       -7.496104
   2       -6.257388
   3       -4.771140
   4       -4.218647
   5       -3.409193
   6       -3.290581
   7       -3.218208
   8       -2.877549
   9       -2.821514
  10       -2.771778
  11       -2.671800
  12       -2.550990
  13       -2.492249
  14       -2.338316
  15       -2.300211
  16       -2.251033
  17       -2.112195
  18       -2.001821
  19       -1.912830
  20       -1.831785
  21       -1.677406
  22       -1.546196
  23       -1.224508
  24        0.426185
  25        2.133572
  26        5.379078
  27        5.730540
  28        6.996482
  29        7.196271
  30        6.701164
  31        6.879536
  32       10.175759
 
  0.2307692E+00  0.7692308E-01  0.0000000E+00  0.2366864E-01
   1       -6.523829
   2       -5.442790
   3       -4.321413
   4       -3.923390
   5       -3.582177
   6       -3.387057
   7       -3.288066
   8       -2.988290
   9       -2.817293
  10       -2.728357
  11       -2.705014
  12       -2.546352
  13       -2.442953
  14       -2.282930
  15       -2.206058
  16       -2.122386
  17       -1.919669
  18       -1.831894
  19       -1.688904
  20       -1.659746
  21       -1.647763
  22       -1.533129
  23       -0.758363
  24        1.306129
  25        3.458784
  26        6.278574
  27        6.806412
  28        7.858841
  29        8.001758
  30        6.600069
  31        7.283971
  32        7.547740
 
  0.3076923E+00  0.7692308E-01  0.0000000E+00  0.2366864E-01
   1       -5.492262
   2       -4.796078
   3       -4.209313
   4       -3.980344
   5       -3.696678
   6       -3.466927
   7       -3.175121
   8       -3.014683
   9       -2.811314
  10       -2.730486
  11       -2.540043
  12       -2.349329
  13       -2.281283
  14       -2.151528
  15       -1.968561
  16       -1.872292
  17       -1.754955
  18       -1.653993
  19       -1.629223
  20       -1.497422
  21       -1.342958
  22       -1.164706
  23        0.066806
  24        2.398337
  25        4.949546
  26        6.696519
  27        7.453179
  28        8.108888
  29        8.258131
  30        6.883049
  31        6.690416
  32        6.641816
 
  0.3846154E+00  0.7692308E-01  0.0000000E+00  0.2366864E-01
   1       -4.813862
   2       -4.556490
   3       -4.156461
   4       -4.080111
   5       -3.832069
   6       -3.584908
   7       -3.134344
   8       -2.899847
   9       -2.838038
  10       -2.704486
  11       -2.492071
  12       -2.236054
  13       -1.976636
  14       -1.852674
  15       -1.773356
  16       -1.683002
  17       -1.609029
  18       -1.575604
  19       -1.470258
  20       -1.373136
  21       -0.675496
  22       -0.106068
  23        1.242902
  24        2.997549
  25        4.757086
  26        5.610290
  27        6.536314
  28        7.658286
  29        6.682926
  30        6.971557
  31        6.232255
  32        7.851268
 
  0.4615385E+00  0.7692308E-01  0.0000000E+00  0.2366864E-01
   1       -4.642637
   2       -4.526848
   3       -4.157633
   4       -4.014443
   5       -3.932967
   6       -3.631577
   7       -3.132874
   8       -2.938680
   9       -2.806967
  10       -2.640104
  11       -2.470983
  12       -2.205020
  13       -1.844346
  14       -1.792760
  15       -1.718566
  16       -1.636984
  17       -1.554638
  18       -1.523797
  19       -1.357822
  20       -1.340975
  21        0.254081
  22        1.053078
  23        1.631150
  24        1.931998
  25        4.340559
  26        5.260460
  27        6.252442
  28        7.446948
  29        6.310254
  30        6.865834
  31        8.180485
  32        8.079889
 
 -0.4615385E+00  0.7692308E-01  0.0000000E+00  0.2366864E-01
   1       -4.813862
   2       -4.556490
   3       -4.156460
   4       -4.080110
   5       -3.832070
   6       -3.584909
   7       -3.134340
   8       -2.899858
   9       -2.838033
  10       -2.704485
  11       -2.492071
  12       -2.236054
  13       -1.976627
  14       -1.852675
  15       -1.773354
  16       -1.682998
  17       -1.609024
  18       -1.575607
  19       -1.470262
  20       -1.373145
  21       -0.675508
  22       -0.106073
  23        1.242904
  24        2.997556
  25        4.757088
  26        5.610292
  27        6.536316
  28        7.658316
  29        6.320389
  30        7.096867
  31        6.508540
  32        7.850775
 
 -0.3846154E+00  0.7692308E-01  0.0000000E+00  0.2366864E-01
   1       -5.492262
   2       -4.796078
   3       -4.209314
   4       -3.980341
   5       -3.696678
   6       -3.466929
   7       -3.175120
   8       -3.014673
   9       -2.811338
  10       -2.730476
  11       -2.540041
  12       -2.349325
  13       -2.281282
  14       -2.151525
  15       -1.968552
  16       -1.872289
  17       -1.754957
  18       -1.654006
  19       -1.629228
  20       -1.497425
  21       -1.342970
  22       -1.164710
  23        0.066808
  24        2.398340
  25        4.949544
  26        6.696525
  27        7.453176
  28        8.106247
  29        8.260481
  30        6.871391
  31        6.694298
  32        6.624988
 
 -0.3076923E+00  0.7692308E-01  0.0000000E+00  0.2366864E-01
   1       -6.523829
   2       -5.442790
   3       -4.321415
   4       -3.923387
   5       -3.582177
   6       -3.387056
   7       -3.288065
   8       -2.988285
   9       -2.817290
  10       -2.728373
  11       -2.705008
  12       -2.546354
  13       -2.442950
  14       -2.282929
  15       -2.206048
  16       -2.122388
  17       -1.919680
  18       -1.831895
  19       -1.688911
  20       -1.659748
  21       -1.647768
  22       -1.533128
  23       -0.758361
  24        1.306130
  25        3.458782
  26        6.278572
  27        6.806360
  28        7.782932
  29        8.019994
  30        6.593293
  31        7.228487
  32        7.547257
 
 -0.2307692E+00  0.7692308E-01  0.0000000E+00  0.2366864E-01
   1       -7.496105
   2       -6.257389
   3       -4.771142
   4       -4.218647
   5       -3.409190
   6       -3.290579
   7       -3.218207
   8       -2.877544
   9       -2.821515
  10       -2.771778
  11       -2.671801
  12       -2.550997
  13       -2.492251
  14       -2.338315
  15       -2.300207
  16       -2.251032
  17       -2.112196
  18       -2.001816
  19       -1.912843
  20       -1.831787
  21       -1.677406
  22       -1.546193
  23       -1.224511
  24        0.426185
  25        2.133570
  26        5.379080
  27        5.730548
  28        6.996579
  29        7.196330
  30        6.707163
  31        6.870725
  32       10.207912
 
 -0.1538462E+00  0.7692308E-01  0.0000000E+00  0.2366864E-01
   1       -8.204217
   2       -6.909275
   3       -5.299813
   4       -4.610593
   5       -3.190733
   6       -3.151247
   7       -3.067033
   8       -2.792979
   9       -2.743484
  10       -2.730263
  11       -2.715012
  12       -2.690392
  13       -2.534640
  14       -2.425218
  15       -2.343577
  16       -2.171552
  17       -2.112070
  18       -2.082972
  19       -1.953894
  20       -1.835151
  21       -1.728099
  22       -1.528549
  23       -1.494873
  24       -0.257014
  25        1.065004
  26        4.781307
  27        5.009231
  28        6.288598
  29        6.568651
  30        7.152165
  31        6.922607
  32        9.395094
 
 -0.7692308E-01  0.7692308E-01  0.0000000E+00  0.1183432E-01
   1       -8.571638
   2       -7.257602
   3       -5.609699
   4       -4.849566
   5       -3.063691
   6       -3.023368
   7       -2.962570
   8       -2.851171
   9       -2.817445
  10       -2.788843
  11       -2.686690
  12       -2.606542
  13       -2.519588
  14       -2.491541
  15       -2.444786
  16       -2.120179
  17       -2.109821
  18       -1.934363
  19       -1.898843
  20       -1.802256
  21       -1.682705
  22       -1.613240
  23       -1.502903
  24       -0.712717
  25        0.384090
  26        4.484445
  27        4.648220
  28        5.934173
  29        6.264009
  30        7.616532
  31        7.195031
  32        8.927947
 
  0.1538462E+00  0.1538462E+00  0.0000000E+00  0.1183432E-01
   1       -6.668492
   2       -5.542755
   3       -4.317010
   4       -3.867149
   5       -3.525897
   6       -3.399313
   7       -3.321215
   8       -2.995431
   9       -2.921153
  10       -2.877258
  11       -2.774402
  12       -2.538038
  13       -2.437947
  14       -2.298181
  15       -2.242850
  16       -2.158142
  17       -1.920923
  18       -1.767026
  19       -1.723048
  20       -1.674867
  21       -1.648373
  22       -1.567571
  23       -0.793947
  24        1.185325
  25        3.260802
  26        6.139340
  27        6.630135
  28        7.784520
  29        7.960204
  30        7.182416
  31        7.487386
  32        8.930900
 
  0.2307692E+00  0.1538462E+00  0.0000000E+00  0.2366864E-01
   1       -5.668780
   2       -4.820045
   3       -4.118918
   4       -3.785986
   5       -3.538163
   6       -3.458326
   7       -3.276561
   8       -3.079314
   9       -2.905725
  10       -2.824908
  11       -2.760212
  12       -2.586615
  13       -2.470113
  14       -2.281790
  15       -2.127654
  16       -1.969595
  17       -1.827603
  18       -1.641431
  19       -1.632433
  20       -1.546055
  21       -1.285563
  22       -1.088159
  23       -0.005119
  24        2.224613
  25        4.648381
  26        7.172783
  27        7.815726
  28        7.717032
  29        6.897711
  30        6.539206
  31        6.876154
  32        7.367684
 
  0.3076923E+00  0.1538462E+00  0.0000000E+00  0.2366864E-01
   1       -4.808499
   2       -4.422656
   3       -4.070469
   4       -3.925298
   5       -3.617996
   6       -3.461192
   7       -3.258819
   8       -3.055657
   9       -2.939127
  10       -2.703381
  11       -2.577060
  12       -2.436769
  13       -2.330314
  14       -2.199942
  15       -1.944510
  16       -1.905212
  17       -1.799099
  18       -1.598416
  19       -1.506687
  20       -1.438124
  21       -0.635152
  22       -0.122246
  23        1.231041
  24        3.441892
  25        5.655000
  26        6.292782
  27        7.102288
  28        7.386531
  29        6.709637
  30        6.935508
  31        6.614231
  32        7.068675
 
  0.3846154E+00  0.1538462E+00  0.0000000E+00  0.2366864E-01
   1       -4.449228
   2       -4.350669
   3       -4.014504
   4       -3.916468
   5       -3.729545
   6       -3.523100
   7       -3.272661
   8       -2.953279
   9       -2.898588
  10       -2.699492
  11       -2.623797
  12       -2.260871
  13       -2.149661
  14       -2.040104
  15       -1.861474
  16       -1.768064
  17       -1.683809
  18       -1.566459
  19       -1.514854
  20       -1.433017
  21        0.552420
  22        1.276899
  23        2.343130
  24        2.976220
  25        4.653315
  26        5.774771
  27        6.445643
  28        8.121285
  29        6.998427
  30        6.188691
  31        7.339494
  32        7.467765
 
  0.4615385E+00  0.1538462E+00  0.0000000E+00  0.2366864E-01
   1       -4.449228
   2       -4.350669
   3       -4.014502
   4       -3.916466
   5       -3.729546
   6       -3.523101
   7       -3.272659
   8       -2.953290
   9       -2.898580
  10       -2.699488
  11       -2.623801
  12       -2.260871
  13       -2.149659
  14       -2.040105
  15       -1.861472
  16       -1.768060
  17       -1.683799
  18       -1.566460
  19       -1.514867
  20       -1.433027
  21        0.552406
  22        1.276894
  23        2.343137
  24        2.976228
  25        4.653318
  26        5.774773
  27        6.445645
  28        8.120054
  29        7.003297
  30        6.168201
  31        7.135607
  32        7.811799
 
 -0.4615385E+00  0.1538462E+00  0.0000000E+00  0.2366864E-01
   1       -4.808499
   2       -4.422656
   3       -4.070469
   4       -3.925294
   5       -3.617996
   6       -3.461194
   7       -3.258818
   8       -3.055652
   9       -2.939137
  10       -2.703375
  11       -2.577063
  12       -2.436768
  13       -2.330312
  14       -2.199942
  15       -1.944495
  16       -1.905210
  17       -1.799099
  18       -1.598423
  19       -1.506703
  20       -1.438136
  21       -0.635167
  22       -0.122250
  23        1.231043
  24        3.441900
  25        5.655005
  26        6.292785
  27        7.102295
  28        7.279632
  29        6.658242
  30        7.084173
  31        6.431536
  32        7.249311
 
 -0.3846154E+00  0.1538462E+00  0.0000000E+00  0.2366864E-01
   1       -5.668781
   2       -4.820046
   3       -4.118921
   4       -3.785980
   5       -3.538162
   6       -3.458328
   7       -3.276559
   8       -3.079310
   9       -2.905727
  10       -2.824911
  11       -2.760210
  12       -2.586617
  13       -2.470113
  14       -2.281785
  15       -2.127644
  16       -1.969598
  17       -1.827605
  18       -1.641438
  19       -1.632448
  20       -1.546059
  21       -1.285577
  22       -1.088163
  23       -0.005116
  24        2.224618
  25        4.648377
  26        7.172769
  27        7.817549
  28        7.725739
  29        6.844370
  30        6.537779
  31        6.896037
  32        7.361597
 
 -0.3076923E+00  0.1538462E+00  0.0000000E+00  0.2366864E-01
   1       -6.668494
   2       -5.542757
   3       -4.317015
   4       -3.867150
   5       -3.525889
   6       -3.399316
   7       -3.321213
   8       -2.995424
   9       -2.921152
  10       -2.877260
  11       -2.774402
  12       -2.538046
  13       -2.437941
  14       -2.298179
  15       -2.242843
  16       -2.158145
  17       -1.920932
  18       -1.767031
  19       -1.723042
  20       -1.674874
  21       -1.648383
  22       -1.567571
  23       -0.793947
  24        1.185327
  25        3.260797
  26        6.139342
  27        6.630138
  28        7.783212
  29        7.962044
  30        7.184127
  31        7.432645
  32        8.965226
 
 -0.2307692E+00  0.1538462E+00  0.0000000E+00  0.2366864E-01
   1       -7.496106
   2       -6.257390
   3       -4.771145
   4       -4.218651
   5       -3.409183
   6       -3.290582
   7       -3.218206
   8       -2.877541
   9       -2.821509
  10       -2.771782
  11       -2.671802
  12       -2.550992
  13       -2.492255
  14       -2.338311
  15       -2.300208
  16       -2.251036
  17       -2.112197
  18       -2.001819
  19       -1.912841
  20       -1.831786
  21       -1.677407
  22       -1.546193
  23       -1.224513
  24        0.426186
  25        2.133567
  26        5.379080
  27        5.730548
  28        6.996535
  29        7.196155
  30        6.672460
  31        6.823535
  32       10.203389
 
 -0.1538462E+00  0.1538462E+00  0.0000000E+00  0.1183432E-01
   1       -8.024022
   2       -6.741033
   3       -5.157359
   4       -4.504937
   5       -3.277729
   6       -3.172577
   7       -3.102674
   8       -2.809998
   9       -2.736336
  10       -2.706355
  11       -2.703920
  12       -2.666685
  13       -2.528918
  14       -2.419389
  15       -2.292127
  16       -2.232738
  17       -2.106952
  18       -2.089865
  19       -1.972206
  20       -1.923176
  21       -1.623006
  22       -1.499927
  23       -1.488160
  24       -0.072364
  25        1.355386
  26        4.929813
  27        5.189603
  28        6.465622
  29        6.723161
  30        6.988701
  31        6.889258
  32        9.601833
 
  0.2307692E+00  0.2307692E+00  0.0000000E+00  0.1183432E-01
   1       -4.795506
   2       -4.325801
   3       -4.040300
   4       -3.714957
   5       -3.666956
   6       -3.379792
   7       -3.259023
   8       -3.065625
   9       -3.053781
  10       -2.735252
  11       -2.684202
  12       -2.567408
  13       -2.535637
  14       -2.306579
  15       -2.023267
  16       -1.953472
  17       -1.891382
  18       -1.603557
  19       -1.487681
  20       -1.456437
  21       -0.609990
  22       -0.097297
  23        1.233639
  24        3.489700
  25        6.049022
  26        7.561830
  27        7.662525
  28        8.171570
  29        6.816286
  30        7.061529
  31        5.914610
  32        7.133076
 
  0.3076923E+00  0.2307692E+00  0.0000000E+00  0.2366864E-01
   1       -4.248484
   2       -4.122785
   3       -3.918461
   4       -3.798276
   5       -3.604817
   6       -3.399174
   7       -3.383787
   8       -3.083426
   9       -3.030110
  10       -2.638882
  11       -2.583009
  12       -2.516531
  13       -2.438717
  14       -2.270995
  15       -1.982795
  16       -1.946520
  17       -1.821583
  18       -1.595411
  19       -1.506574
  20       -1.452542
  21        0.553012
  22        1.355177
  23        2.802589
  24        4.466133
  25        5.434537
  26        6.330127
  27        7.011032
  28        7.584268
  29        8.258176
  30        8.039078
  31        6.665228
  32        7.146489
 
  0.3846154E+00  0.2307692E+00  0.0000000E+00  0.2366864E-01
   1       -4.120502
   2       -4.109963
   3       -3.853785
   4       -3.736664
   5       -3.607590
   6       -3.474274
   7       -3.408968
   8       -3.046563
   9       -3.021005
  10       -2.658344
  11       -2.618689
  12       -2.390116
  13       -2.337826
  14       -2.291191
  15       -1.961857
  16       -1.906787
  17       -1.688738
  18       -1.615693
  19       -1.560300
  20       -1.518829
  21        2.009667
  22        2.417347
  23        3.061093
  24        3.586895
  25        5.031907
  26        5.960919
  27        6.737136
  28        7.093765
  29        8.212295
  30        8.294333
  31        6.216775
  32        7.155823
 
  0.4615385E+00  0.2307692E+00  0.0000000E+00  0.2366864E-01
   1       -4.248483
   2       -4.122786
   3       -3.918464
   4       -3.798271
   5       -3.604817
   6       -3.399169
   7       -3.383796
   8       -3.083422
   9       -3.030113
  10       -2.638878
  11       -2.583011
  12       -2.516531
  13       -2.438714
  14       -2.270994
  15       -1.982792
  16       -1.946518
  17       -1.821575
  18       -1.595417
  19       -1.506590
  20       -1.452552
  21        0.552997
  22        1.355172
  23        2.802593
  24        4.466152
  25        5.434546
  26        6.330131
  27        7.011018
  28        7.584281
  29        8.243665
  30        8.015153
  31        6.661261
  32        7.196826
 
 -0.4615385E+00  0.2307692E+00  0.0000000E+00  0.2366864E-01
   1       -4.795509
   2       -4.325799
   3       -4.040305
   4       -3.714951
   5       -3.666958
   6       -3.379792
   7       -3.259029
   8       -3.065623
   9       -3.053778
  10       -2.735254
  11       -2.684198
  12       -2.567402
  13       -2.535640
  14       -2.306574
  15       -2.023261
  16       -1.953473
  17       -1.891382
  18       -1.603564
  19       -1.487698
  20       -1.456448
  21       -0.610003
  22       -0.097299
  23        1.233643
  24        3.489712
  25        6.049014
  26        7.561959
  27        7.662571
  28        8.185088
  29        6.838400
  30        7.029184
  31        5.951148
  32        7.149934
 
 -0.3846154E+00  0.2307692E+00  0.0000000E+00  0.2366864E-01
   1       -5.668785
   2       -4.820047
   3       -4.118925
   4       -3.785986
   5       -3.538160
   6       -3.458326
   7       -3.276564
   8       -3.079310
   9       -2.905722
  10       -2.824906
  11       -2.760209
  12       -2.586609
  13       -2.470112
  14       -2.281790
  15       -2.127647
  16       -1.969599
  17       -1.827605
  18       -1.641439
  19       -1.632447
  20       -1.546060
  21       -1.285577
  22       -1.088162
  23       -0.005115
  24        2.224620
  25        4.648373
  26        7.172778
  27        7.820761
  28        7.742431
  29        6.880209
  30        6.542125
  31        6.804783
  32        7.431698
 
 -0.3076923E+00  0.2307692E+00  0.0000000E+00  0.2366864E-01
   1       -6.523833
   2       -5.442794
   3       -4.321422
   4       -3.923397
   5       -3.582172
   6       -3.387053
   7       -3.288065
   8       -2.988283
   9       -2.817287
  10       -2.728362
  11       -2.705009
  12       -2.546346
  13       -2.442948
  14       -2.282929
  15       -2.206058
  16       -2.122392
  17       -1.919680
  18       -1.831894
  19       -1.688912
  20       -1.659749
  21       -1.647771
  22       -1.533128
  23       -0.758364
  24        1.306132
  25        3.458777
  26        6.278579
  27        6.806326
  28        7.856283
  29        7.945368
  30        6.571379
  31        7.291457
  32        7.487433
 
 -0.2307692E+00  0.2307692E+00  0.0000000E+00  0.1183432E-01
   1       -7.161566
   2       -5.967822
   3       -4.592386
   4       -4.107664
   5       -3.527614
   6       -3.296381
   7       -3.238842
   8       -2.890186
   9       -2.814246
  10       -2.709064
  11       -2.644129
  12       -2.497903
  13       -2.422693
  14       -2.420585
  15       -2.303495
  16       -2.187654
  17       -2.103299
  18       -1.915055
  19       -1.912730
  20       -1.852206
  21       -1.637544
  22       -1.495102
  23       -1.116856
  24        0.717419
  25        2.595452
  26        5.676329
  27        6.089792
  28        7.345509
  29        7.510422
  30        6.789655
  31        7.006193
  32        8.558057
 
  0.3076923E+00  0.3076923E+00  0.0000000E+00  0.1183432E-01
   1       -3.945697
   2       -3.878173
   3       -3.834937
   4       -3.675608
   5       -3.618166
   6       -3.576781
   7       -3.423791
   8       -3.042038
   9       -3.012351
  10       -2.622517
  11       -2.574578
  12       -2.546860
  13       -2.520632
  14       -2.265860
  15       -2.020595
  16       -2.006224
  17       -1.725913
  18       -1.603488
  19       -1.593960
  20       -1.546109
  21        2.224192
  22        3.169196
  23        4.191563
  24        4.521265
  25        4.713003
  26        5.631318
  27        5.918211
  28        6.909441
  29        7.853287
  30        7.881579
  31        6.740921
  32        6.322021
 
  0.3846154E+00  0.3076923E+00  0.0000000E+00  0.2366864E-01
   1       -3.945696
   2       -3.878171
   3       -3.834943
   4       -3.675608
   5       -3.618161
   6       -3.576788
   7       -3.423789
   8       -3.042033
   9       -3.012359
  10       -2.622516
  11       -2.574577
  12       -2.546860
  13       -2.520631
  14       -2.265853
  15       -2.020596
  16       -2.006227
  17       -1.725905
  18       -1.603493
  19       -1.593971
  20       -1.546114
  21        2.224179
  22        3.169199
  23        4.191583
  24        4.521280
  25        4.712993
  26        5.631329
  27        5.918188
  28        6.909429
  29        7.853416
  30        7.881889
  31        6.663145
  32        6.385647
 
  0.4615385E+00  0.3076923E+00  0.0000000E+00  0.2366864E-01
   1       -4.248491
   2       -4.122785
   3       -3.918465
   4       -3.798274
   5       -3.604815
   6       -3.399175
   7       -3.383791
   8       -3.083425
   9       -3.030111
  10       -2.638878
  11       -2.583008
  12       -2.516529
  13       -2.438715
  14       -2.270988
  15       -1.982795
  16       -1.946524
  17       -1.821577
  18       -1.595418
  19       -1.506590
  20       -1.452553
  21        0.553001
  22        1.355179
  23        2.802601
  24        4.466178
  25        5.434494
  26        6.330106
  27        7.011038
  28        7.584239
  29        8.260439
  30        8.001240
  31        6.706039
  32        7.030571
 
 -0.4615385E+00  0.3076923E+00  0.0000000E+00  0.2366864E-01
   1       -4.808510
   2       -4.422656
   3       -4.070475
   4       -3.925298
   5       -3.617998
   6       -3.461193
   7       -3.258822
   8       -3.055656
   9       -2.939122
  10       -2.703374
  11       -2.577057
  12       -2.436767
  13       -2.330310
  14       -2.199938
  15       -1.944509
  16       -1.905212