Cu111                                   
   1.00000000000000     
     2.571700    0.000000    0.000000
    -1.285850    2.227158    0.000000
     0.000000    0.000000   21.299400
   Cu
     4
Direct
  0.000000  0.000000  0.000000
  0.333330  0.666670  0.098590
  0.000005  0.999995  0.293871
  0.666668  0.333332  0.196673
 
   28   28  224
 -.52325412332E+02 -.52004243014E+02 -.50756772572E+02 -.48682091112E+02 -.45502802883E+02
 -.41109134742E+02 -.35782060490E+02 -.30153057896E+02 -.23839962483E+02 -.17236494762E+02
 -.93389061920E+01 -.29515714997E+01 -.58618342347E+00 -.10951672151E+00 -.55376492505E+00
 -.10879695974E+00 -.58447149261E+00 -.29514498113E+01 -.93418029537E+01 -.17235448535E+02
 -.23838962417E+02 -.30154096187E+02 -.35781451532E+02 -.41109592723E+02 -.45502677249E+02
 -.48682105986E+02 -.50756494364E+02 -.52004125359E+02 -.52004125357E+02 -.51979403707E+02
 -.51193886981E+02 -.49534197324E+02 -.46805243106E+02 -.43039508529E+02 -.38106427151E+02
 -.32623288358E+02 -.26713519240E+02 -.20291313075E+02 -.13150665600E+02 -.53399243338E+01
 -.13502133452E+01 -.10060456422E+00 -.35558247529E+00 -.33598122380E+00 -.12760002641E+00
 -.13180167562E+01 -.53676210203E+01 -.13133575292E+02 -.20280778149E+02 -.26701397379E+02
 -.32620366821E+02 -.38128904113E+02 -.42981486205E+02 -.46883437776E+02 -.49537257350E+02
 -.51185220395E+02 -.50756494358E+02 -.51194435827E+02 -.50773589693E+02 -.49540719708E+02
 -.47386337606E+02 -.44027240359E+02 -.39632984281E+02 -.34435108667E+02 -.28861520312E+02
 -.22635303330E+02 -.15996685682E+02 -.81612890758E+01 -.23424640514E+01 -.40790138146E+00
 -.84835623577E-02 -.41300752190E+00 -.52178145166E-03 -.41566810913E+00 -.23471698103E+01
 -.81479776707E+01 -.16022085310E+02 -.22667050867E+02 -.28869529083E+02 -.34415952180E+02
 -.39671175401E+02 -.43994761577E+02 -.47324632687E+02 -.49537257345E+02 -.48682105975E+02
 -.49534411983E+02 -.49540418539E+02 -.48644590502E+02 -.46825981569E+02 -.43992494146E+02
 -.40089427651E+02 -.35255185679E+02 -.30099783524E+02 -.24195667215E+02 -.18017930303E+02
 -.10492599461E+02 -.37359728804E+01 -.69764996428E+00 0.57195218344E-01 -.65918730357E-01
 -.98312995955E-01 0.87419082490E-01 -.72004079878E+00 -.37128152383E+01 -.10504952273E+02
 -.17963268674E+02 -.24167032649E+02 -.30120549463E+02 -.35207956807E+02 -.40156312578E+02
 -.43994761572E+02 -.46883437768E+02 -.45502677231E+02 -.46805250484E+02 -.47386753403E+02
 -.46826262866E+02 -.45587777592E+02 -.42985054748E+02 -.39688615749E+02 -.35286899952E+02
 -.30591628783E+02 -.25029301110E+02 -.19118607929E+02 -.12234323398E+02 -.49548263309E+01
 -.11600815088E+01 0.15571962789E+00 0.10750834904E+00 0.24590505258E+00 0.10162863371E+00
 0.15586504525E+00 -.11567808679E+01 -.49778692435E+01 -.12251339536E+02 -.19175489364E+02
 -.25025042597E+02 -.30642711785E+02 -.35207956803E+02 -.39671175391E+02 -.42981486191E+02
 -.41109592702E+02 -.43038291998E+02 -.44025545889E+02 -.43990762086E+02 -.42983845153E+02
 -.41072521889E+02 -.38106705045E+02 -.34407591916E+02 -.30014137235E+02 -.25107802716E+02
 -.19435859033E+02 -.13129091158E+02 -.57934743475E+01 -.16001419484E+01 0.17056879735E+00
 0.27141916377E+00 0.45281697224E+00 0.50139210643E+00 0.23855314752E+00 0.19642319603E+00
 -.16109380175E+01 -.57324588911E+01 -.13113708777E+02 -.19413980353E+02 -.25025042591E+02
 -.30120549453E+02 -.34415952164E+02 -.38128904095E+02 -.35781451503E+02 -.38104263214E+02
 -.39630312360E+02 -.40086636848E+02 -.39685579235E+02 -.38104841299E+02 -.35842266025E+02
 -.32647493874E+02 -.28872806532E+02 -.24287875578E+02 -.19024968030E+02 -.13164934981E+02
 -.61108524116E+01 -.18054174576E+01 0.73595626764E-01 0.46426146783E+00 0.51656933059E+00
 0.94592732743E+00 0.50253294561E+00 0.47686648463E+00 0.49336963433E-01 -.18251925726E+01
 -.61894891015E+01 -.13113708773E+02 -.19175489354E+02 -.24167032634E+02 -.28869529063E+02
 -.32620366798E+02 -.30154096156E+02 -.32620058530E+02 -.34428654988E+02 -.35247175328E+02
 -.35279429411E+02 -.34401367618E+02 -.32643677469E+02 -.30033187787E+02 -.26689691860E+02
 -.22680551913E+02 -.17866182094E+02 -.12366204662E+02 -.57120768006E+01 -.18855387573E+01
 0.11599435707E+00 0.47693577878E+00 0.64528601153E+00 0.10860072776E+01 0.10554291563E+01
 0.67542944792E+00 0.46875821957E+00 0.16091300901E+00 -.18251925664E+01 -.57324588808E+01
 -.12251339521E+02 -.17963268653E+02 -.22667050843E+02 -.26701397348E+02 -.23838962384E+02
 -.26707586151E+02 -.28853181582E+02 -.30090845840E+02 -.30580856038E+02 -.30004579956E+02
 -.28864322617E+02 -.26685303749E+02 -.24068957159E+02 -.20190625885E+02 -.15975818255E+02
 -.10701410309E+02 -.47634828809E+01 -.17127084900E+01 0.18579221461E+00 0.44880179613E+00
 0.69181069260E+00 0.11985154206E+01 0.12369961054E+01 0.12255373014E+01 0.63348342377E+00
 0.46875822240E+00 0.49336970500E-01 -.16109380015E+01 -.49778692249E+01 -.10504952252E+02
 -.16022085277E+02 -.20280778119E+02 -.17235448488E+02 -.20288731404E+02 -.22627041777E+02
 -.24183305876E+02 -.25015513967E+02 -.25094328584E+02 -.24276238025E+02 -.22671649884E+02
 -.20185399956E+02 -.16966641191E+02 -.13466849627E+02 -.79613551867E+01 -.36443380510E+01
 -.13190640990E+01 0.28576601988E+00 0.32921676690E+00 0.70140598229E+00 0.11449363101E+01
 0.14093187626E+01 0.13287671352E+01 0.12255373036E+01 0.67542945520E+00 0.47686649335E+00
 0.19642321419E+00 -.11567808431E+01 -.37128152107E+01 -.81479776405E+01 -.13133575258E+02
 -.93418029158E+01 -.13145418153E+02 -.15986449372E+02 -.18005201090E+02 -.19103036224E+02
 -.19418413350E+02 -.19008812897E+02 -.17853073107E+02 -.15967951300E+02 -.13462955901E+02
 -.93310048934E+01 -.51105421867E+01 -.26160956197E+01 -.67320751355E+00 0.21107354189E+00
 0.23111497106E+00 0.60691166638E+00 0.10823176212E+01 0.12492042990E+01 0.14093187651E+01
 0.12369961110E+01 0.10554291634E+01 0.50253295675E+00 0.23855316297E+00 0.15586507299E+00
 -.72004076780E+00 -.23471697840E+01 -.53676209721E+01 -.29514497718E+01 -.53345929154E+01
 -.81544685859E+01 -.10476254858E+02 -.12213854386E+02 -.13106754960E+02 -.13143365731E+02
 -.12345819051E+02 -.10684533327E+02 -.79513416965E+01 -.51075188684E+01 -.31053660488E+01
 -.14148435665E+01 -.23126112035E+00 0.87584729226E-01 0.38954825738E-01 0.48984902246E+00
 0.83081819931E+00 0.10823176234E+01 0.11449363113E+01 0.11985154282E+01 0.10860072855E+01
 0.94592734127E+00 0.50139212081E+00 0.10162866397E+00 0.87419116158E-01 -.41566807762E+00
 -.13180167152E+01 -.58447144727E+00 -.13479519555E+01 -.23302476173E+01 -.37189485138E+01
 -.49418687768E+01 -.57824064154E+01 -.61002344031E+01 -.57006786178E+01 -.47507452913E+01
 -.36294373942E+01 -.26042219207E+01 -.14107619128E+01 -.48991014218E+00 -.13765746281E-01
 -.21654574441E+00 -.99294195933E-01 0.31777061181E+00 0.48984902064E+00 0.60691166673E+00
 0.70140598442E+00 0.69181069791E+00 0.64528601820E+00 0.51656934215E+00 0.45281698655E+00
 0.24590508055E+00 -.98312960948E-01 -.52174869800E-03 -.12759998954E+00 -.10879691725E+00
 -.95926272188E-01 -.39579177508E+00 -.69136859370E+00 -.11572847796E+01 -.15938052167E+01
 -.17961080416E+01 -.18760999330E+01 -.17064060582E+01 -.13150048253E+01 -.66580010122E+00
 -.22024322597E+00 -.82536807764E-02 -.26452601350E+00 -.40408343563E+00 -.16079245078E+00
 -.99294196170E-01 0.38954827160E-01 0.23111496966E+00 0.32921676645E+00 0.44880179811E+00
 0.47693578492E+00 0.46426147703E+00 0.27141917964E+00 0.10750837654E+00 -.65918691658E-01
 -.41300749005E+00 -.33598118952E+00 -.55376488512E+00 -.34992647591E+00 0.10781761927E-02
 0.58100276606E-01 0.16051001344E+00 0.18446199789E+00 0.94822561703E-01 0.13872651247E+00
 0.20667831159E+00 0.29912541721E+00 0.21463420732E+00 0.89045286188E-01 -.20787309394E+00
 -.39772280672E+00 -.33798354652E+00 -.40408343731E+00 -.21654574839E+00 0.87584727827E-01
 0.21107354313E+00 0.28576602181E+00 0.18579221600E+00 0.11599436160E+00 0.73595635911E-01
 0.17056881505E+00 0.15571965601E+00 0.57195253481E-01 -.84835371685E-02 -.35558244006E+00
 -.10951668651E+00 -.32917319770E+00 -.40529471562E+00 -.67371097433E-01 0.11463403311E+00
 0.29044644293E+00 0.48914680750E+00 0.50295869209E+00 0.47526957456E+00 0.35442256141E+00
 0.25123497957E+00 0.45715813240E-01 -.99783838542E-01 -.15332752931E+00 -.39772280986E+00
 -.26452601790E+00 -.13765752800E-01 -.23126112674E+00 -.67320751650E+00 -.13190640955E+01
 -.17127084821E+01 -.18855387455E+01 -.18054174416E+01 -.16001419246E+01 -.11600814783E+01
 -.69764993344E+00 -.40790136148E+00 -.10060453019E+00 -.58618339308E+00 -.12086881543E+00
 0.72016225724E-02 -.98160013089E-01 0.25443305652E+00 0.47484463135E+00 0.54158332976E+00
 0.66927161922E+00 0.71437963907E+00 0.72506962528E+00 0.63112184612E+00 0.51176752322E+00
 0.32593650933E+00 -.99783842366E-01 -.20787310206E+00 -.82536888645E-02 -.48991015023E+00
 -.14148435768E+01 -.26160956294E+01 -.36443380592E+01 -.47634828811E+01 -.57120767939E+01
 -.61108523964E+01 -.57934743289E+01 -.49548263106E+01 -.37359728674E+01 -.23424640346E+01
 -.13502133073E+01 -.29515714728E+01 -.13126919791E+01 -.40585058133E+00 0.89687794036E-01
 0.10748453495E+00 0.52346814969E+00 0.96912372015E+00 0.11068282323E+01 0.12157242903E+01
 0.11626856446E+01 0.11032427556E+01 0.85479461674E+00 0.51176751874E+00 0.45715808876E-01
 0.89045274378E-01 -.22024324267E+00 -.14107619253E+01 -.31053660622E+01 -.51105421965E+01
 -.79613551963E+01 -.10701410317E+02 -.12366204668E+02 -.13164934982E+02 -.13129091158E+02
 -.12234323391E+02 -.10492599448E+02 -.81612890434E+01 -.53399243066E+01 -.93389061590E+01
 -.53662935455E+01 -.23349571098E+01 -.71228112275E+00 0.15945135985E+00 0.25878138856E+00
 0.52731169478E+00 0.10764252639E+01 0.12523408297E+01 0.14234561607E+01 0.12640703045E+01
 0.11032427501E+01 0.63112183421E+00 0.25123496892E+00 0.21463419746E+00 -.66580012337E+00
 -.26042219409E+01 -.51075188857E+01 -.93310049127E+01 -.13466849640E+02 -.15975818264E+02
 -.17866182098E+02 -.19024968030E+02 -.19435859028E+02 -.19118607918E+02 -.18017930284E+02
 -.15996685663E+02 -.13150665583E+02 -.17236494744E+02 -.13130611997E+02 -.81368342457E+01
 -.36986466038E+01 -.11529224956E+01 0.20982110144E+00 0.50178864113E+00 0.69893539086E+00
 0.12430546104E+01 0.13424602909E+01 0.14234561544E+01 0.11626856298E+01 0.72506960743E+00
 0.35442254146E+00 0.29912540424E+00 -.13150048471E+01 -.36294374259E+01 -.79513417175E+01
 -.13462955923E+02 -.16966641212E+02 -.20190625901E+02 -.22680551924E+02 -.24287875583E+02
 -.25107802716E+02 -.25029301106E+02 -.24195667208E+02 -.22635303318E+02 -.20291313052E+02
 -.23839962470E+02 -.20274548999E+02 -.16014319860E+02 -.10488189334E+02 -.49645336872E+01
 -.16046671877E+01 0.70598541017E-01 0.49484720424E+00 0.65644703830E+00 0.12430546028E+01
 0.12523408171E+01 0.12157242712E+01 0.71437961333E+00 0.47526954776E+00 0.20667829120E+00
 -.17064060769E+01 -.47507453286E+01 -.10684533358E+02 -.15967951325E+02 -.20185399981E+02
 -.24068957179E+02 -.26689691877E+02 -.28872806544E+02 -.30014137242E+02 -.30591628784E+02
 -.30099783518E+02 -.28861520302E+02 -.26713519231E+02 -.30153057883E+02 -.26696908512E+02
 -.22658305393E+02 -.17950266950E+02 -.12231359117E+02 -.57211420527E+01 -.18163171225E+01
 0.18409091615E+00 0.49484719889E+00 0.69893537944E+00 0.10764252433E+01 0.11068282053E+01
 0.66927158741E+00 0.50295866062E+00 0.13872648566E+00 -.18760999532E+01 -.57006786589E+01
 -.12345819091E+02 -.17853073135E+02 -.22671649916E+02 -.26685303775E+02 -.30033187809E+02
 -.32647493890E+02 -.34407591927E+02 -.35286899957E+02 -.35255185681E+02 -.34435108665E+02
 -.32623288349E+02 -.35782060485E+02 -.32616887361E+02 -.28861223390E+02 -.24155534481E+02
 -.19158652483E+02 -.13092249443E+02 -.61780221487E+01 -.18163171247E+01 0.70598533587E-01
 0.50178862590E+00 0.52731167253E+00 0.96912369265E+00 0.54158329526E+00 0.48914677466E+00
 0.94822533339E-01 -.17961080632E+01 -.61002344456E+01 -.13143365780E+02 -.19008812930E+02
 -.24276238059E+02 -.28864322647E+02 -.32643677496E+02 -.35842266046E+02 -.38106705060E+02
 -.39688615759E+02 -.40089427655E+02 -.39632984279E+02 -.38106427148E+02 -.41109134739E+02
 -.38126744911E+02 -.34409670704E+02 -.30110581335E+02 -.25011907043E+02 -.19396563681E+02
 -.13092249448E+02 -.57211420617E+01 -.16046671957E+01 0.20982109198E+00 0.25878136864E+00
 0.52346812273E+00 0.47484460030E+00 0.29044641464E+00 0.18446197142E+00 -.15938052428E+01
 -.57824064662E+01 -.13106755013E+02 -.19418413385E+02 -.25094328623E+02 -.30004579991E+02
 -.34401367649E+02 -.38104841323E+02 -.41072521908E+02 -.42985054761E+02 -.43992494156E+02
 -.44027240364E+02 -.43039508529E+02 -.45502802882E+02 -.42980692890E+02 -.39668044056E+02
 -.35200815315E+02 -.30631636513E+02 -.25011907046E+02 -.19158652489E+02 -.12231359128E+02
 -.49645337074E+01 -.11529225139E+01 0.15945134519E+00 0.10748452034E+00 0.25443303510E+00
 0.11463401117E+00 0.16050998728E+00 -.11572848141E+01 -.49418688353E+01 -.12213854438E+02
 -.19103036262E+02 -.25015514008E+02 -.30580856075E+02 -.35279429445E+02 -.39685579261E+02
 -.42983845176E+02 -.45587777608E+02 -.46825981581E+02 -.47386337610E+02 -.46805243108E+02
 -.48682091113E+02 -.46883173685E+02 -.43993346385E+02 -.40152925908E+02 -.35200815316E+02
 -.30110581340E+02 -.24155534488E+02 -.17950266962E+02 -.10488189351E+02 -.36986466295E+01
 -.71228115615E+00 0.89687760432E-01 -.98160045126E-01 -.67371130325E-01 0.58100234640E-01
 -.69136864838E+00 -.37189485802E+01 -.10476254901E+02 -.18005201130E+02 -.24183305919E+02
 -.30090845879E+02 -.35247175364E+02 -.40086636875E+02 -.43990762111E+02 -.46826262883E+02
 -.48644590516E+02 -.49540719716E+02 -.49534197330E+02 -.50756772574E+02 -.49537442594E+02
 -.47324981936E+02 -.43993346387E+02 -.39668044058E+02 -.34409670709E+02 -.28861223398E+02
 -.22658305407E+02 -.16014319875E+02 -.81368342697E+01 -.23349571376E+01 -.40585061725E+00
 0.72015783090E-02 -.40529476884E+00 0.10781200254E-02 -.39579183273E+00 -.23302476614E+01
 -.81544686220E+01 -.15986449421E+02 -.22627041816E+02 -.28853181624E+02 -.34428655021E+02
 -.39630312390E+02 -.44025545914E+02 -.47386753421E+02 -.49540418554E+02 -.50773589701E+02
 -.51193886986E+02 -.52004243016E+02 -.51185088385E+02 -.49537442593E+02 -.46883173685E+02
 -.42980692891E+02 -.38126744916E+02 -.32616887368E+02 -.26696908523E+02 -.20274549019E+02
 -.13130612017E+02 -.53662935658E+01 -.13126920090E+01 -.12086884677E+00 -.32917323362E+00
 -.34992651138E+00 -.95926308306E-01 -.13479519914E+01 -.53345929659E+01 -.13145418194E+02
 -.20288731444E+02 -.26707586194E+02 -.32620058560E+02 -.38104263245E+02 -.43038292020E+02
 -.46805250503E+02 -.49534411996E+02 -.51194435836E+02 -.51979403712E+02 -.51905995766E+02
 -.51578423667E+02 -.50240498156E+02 -.48096134172E+02 -.44893454825E+02 -.40666010407E+02
 -.35329227410E+02 -.29613035852E+02 -.23432561179E+02 -.16774442905E+02 -.89060728153E+01
 -.27199955830E+01 -.50804068233E+00 -.63655969688E-01 -.49723611079E+00 -.64439610251E-01
 -.50993239705E+00 -.27201915597E+01 -.89028918322E+01 -.16775529048E+02 -.23433703604E+02
 -.29611866930E+02 -.35329897920E+02 -.40665500861E+02 -.44893583301E+02 -.48096109047E+02
 -.50240798291E+02 -.51578558678E+02 -.51578558673E+02 -.51543079769E+02 -.50723043460E+02
 -.48967685291E+02 -.46163000260E+02 -.42502469408E+02 -.37674818147E+02 -.32084451896E+02
 -.26256459932E+02 -.19880485543E+02 -.12669075800E+02 -.50053251843E+01 -.12230469422E+01
 -.57448820449E-01 -.30653789867E+00 -.28475777996E+00 -.83292198175E-01 -.11889958157E+01
 -.50328751561E+01 -.12659282642E+02 -.19868803388E+02 -.26245902716E+02 -.32067505590E+02
 -.37710144456E+02 -.42440536812E+02 -.46249396133E+02 -.48986975518E+02 -.50695104319E+02
 -.50240798282E+02 -.50725840263E+02 -.50254052399E+02 -.48988387237E+02 -.46762125581E+02
 -.43456187963E+02 -.39219121880E+02 -.33924932505E+02 -.28333432466E+02 -.22230670922E+02
 -.15524239859E+02 -.77500288286E+01 -.21441132575E+01 -.33532715411E+00 0.43866771066E-01
 -.33950889803E+00 0.49580938800E-01 -.34243886552E+00 -.21524630237E+01 -.77312957438E+01
 -.15545572294E+02 -.22254951931E+02 -.28361365664E+02 -.33901017685E+02 -.39255399679E+02
 -.43412720117E+02 -.46681046952E+02 -.48986975514E+02 -.48096109031E+02 -.48975578908E+02
 -.48996826811E+02 -.48035492905E+02 -.46198334858E+02 -.43386017512E+02 -.39656401764E+02
 -.34751711043E+02 -.29573735940E+02 -.23771855765E+02 -.17574949600E+02 -.10028189369E+02
 -.34632361802E+01 -.57820342208E+00 0.10032274614E+00 -.37580762918E-02 -.34811604658E-01
 0.12980505887E+00 -.59660493752E+00 -.34453866543E+01 -.10040392872E+02 -.17536360017E+02
 -.23727286757E+02 -.29593758536E+02 -.34695813564E+02 -.39740998015E+02 -.43412720111E+02
 -.46249396122E+02 -.44893583281E+02 -.46174235511E+02 -.46777634390E+02 -.46209291269E+02
 -.45003609094E+02 -.42439022766E+02 -.39301740746E+02 -.34787197831E+02 -.30037615126E+02
 -.24591987349E+02 -.18686902079E+02 -.11762306018E+02 -.46011119090E+01 -.10446425645E+01
 0.21911282287E+00 0.11661097826E+00 0.32650048486E+00 0.11350433180E+00 0.21231211446E+00
 -.10334707333E+01 -.46264677210E+01 -.11763859114E+02 -.18754031151E+02 -.24579459552E+02
 -.30111538007E+02 -.34695813557E+02 -.39255399667E+02 -.42440536794E+02 -.40665500832E+02
 -.42514762410E+02 -.43476954107E+02 -.43406819808E+02 -.42451278299E+02 -.40583187752E+02
 -.37704170516E+02 -.33864363176E+02 -.29489153512E+02 -.24683497485E+02 -.18995568187E+02
 -.12657105000E+02 -.54069860570E+01 -.14647733975E+01 0.23541827162E+00 0.28692490820E+00
 0.51520956366E+00 0.55344340474E+00 0.26557004841E+00 0.25124848924E+00 -.14715010354E+01
 -.53659452415E+01 -.12623855429E+02 -.18996506882E+02 -.24579459547E+02 -.29593758522E+02
 -.33901017667E+02 -.37710144432E+02 -.35329897887E+02 -.37684440241E+02 -.39237233944E+02
 -.39678070842E+02 -.39320275637E+02 -.37713492681E+02 -.35449382384E+02 -.32048758819E+02
 -.28391639898E+02 -.23842388029E+02 -.18595292457E+02 -.12695970966E+02 -.57014793140E+01
 -.16729286486E+01 0.16196561295E+00 0.46999921010E+00 0.59662071031E+00 0.99146937317E+00
 0.57698406453E+00 0.48965883072E+00 0.13302611208E+00 -.16681148770E+01 -.57996836114E+01
 -.12623855421E+02 -.18754031137E+02 -.23727286738E+02 -.28361365639E+02 -.32067505558E+02
 -.29611866888E+02 -.32090079092E+02 -.33938913550E+02 -.34771262285E+02 -.34806145448E+02
 -.33878069962E+02 -.32054999144E+02 -.29442340196E+02 -.26329030425E+02 -.22210912835E+02
 -.17448117278E+02 -.11886825630E+02 -.53195180459E+01 -.17551548739E+01 0.21432511444E+00
 0.48024382981E+00 0.73199717634E+00 0.11297215967E+01 0.11333410970E+01 0.73296414943E+00
 0.49513564025E+00 0.21920558160E+00 -.16681148726E+01 -.53659452295E+01 -.11763859095E+02
 -.17536359992E+02 -.22254951899E+02 -.26245902682E+02 -.23433703554E+02 -.26260443543E+02
 -.28340373386E+02 -.29583074218E+02 -.30049870675E+02 -.29499186918E+02 -.28398782423E+02
 -.26331338265E+02 -.23648476891E+02 -.19666355180E+02 -.15625235663E+02 -.10164037657E+02
 -.44559403243E+01 -.15599850879E+01 0.25835801970E+00 0.46676117033E+00 0.76609191498E+00
 0.12577657244E+01 0.13041995209E+01 0.12794718501E+01 0.71676361573E+00 0.49513564652E+00
 0.13302612445E+00 -.14715010203E+01 -.46264676961E+01 -.10040392838E+02 -.15545572261E+02
 -.19868803343E+02 -.16775529006E+02 -.19878133562E+02 -.22231245762E+02 -.23775475855E+02
 -.24596857480E+02 -.24688018577E+02 -.23845190608E+02 -.22212143217E+02 -.19666922576E+02
 -.16642422073E+02 -.12985896907E+02 -.74741582135E+01 -.34375921627E+01 -.11455547892E+01
 0.32267880094E+00 0.36046510797E+00 0.76606887164E+00 0.12063962883E+01 0.14702210003E+01
 0.13935999015E+01 0.12794718553E+01 0.73296415849E+00 0.48965884866E+00 0.25124850883E+00
 -.10334707081E+01 -.34453866199E+01 -.77312956999E+01 -.12659282593E+02 -.89028917735E+01
 -.12669172850E+02 -.15524602709E+02 -.17574253997E+02 -.18687184700E+02 -.18997214168E+02
 -.18596230901E+02 -.17447872999E+02 -.15623046575E+02 -.12984425461E+02 -.87853202970E+01
 -.48346270526E+01 -.24269675361E+01 -.53497248323E+00 0.24014571177E+00 0.25990909139E+00
 0.66701363052E+00 0.11520826140E+01 0.13071572322E+01 0.14702210030E+01 0.13041995280E+01
 0.11333411117E+01 0.57698408561E+00 0.26557007599E+00 0.21231214154E+00 -.59660490216E+00
 -.21524629717E+01 -.50328751168E+01 -.27201915008E+01 -.50062065615E+01 -.77474228115E+01
 -.10031336506E+02 -.11766325064E+02 -.12661266574E+02 -.12699265414E+02 -.11890750524E+02
 -.10167700763E+02 -.74750972472E+01 -.48330382534E+01 -.29033539523E+01 -.12642660814E+01
 -.15057322228E+00 0.12650718128E+00 0.69917624689E-01 0.55642329096E+00 0.87540015686E+00
 0.11520826146E+01 0.12063962955E+01 0.12577657323E+01 0.11297216135E+01 0.99146939419E+00
 0.55344343661E+00 0.11350435863E+00 0.12980509384E+00 -.34243881735E+00 -.11889957679E+01
 -.50993234606E+00 -.12218430122E+01 -.21495072365E+01 -.34691853970E+01 -.45987301545E+01
 -.54000447295E+01 -.56932277882E+01 -.53129567867E+01 -.44533529691E+01 -.34412359843E+01
 -.24319018933E+01 -.12651047297E+01 -.39555890373E+00 0.27861713637E-01 -.18605762855E+00
 -.23055941347E-01 0.35849150586E+00 0.55642329349E+00 0.66701363369E+00 0.76606887847E+00
 0.76609192584E+00 0.73199719522E+00 0.59662073436E+00 0.51520959648E+00 0.32650051509E+00
 -.34811569808E-01 0.49580985202E-01 -.83292146579E-01 -.64439559188E-01 -.59981647800E-01
 -.34252623778E+00 -.57535619627E+00 -.10351086548E+01 -.14570762067E+01 -.16674244940E+01
 -.17497786692E+01 -.15522284573E+01 -.11373770883E+01 -.53341222736E+00 -.15656367813E+00
 0.24414845149E-01 -.24932925026E+00 -.34179029564E+00 -.85372367813E-01 -.23055943120E-01
 0.69917621494E-01 0.25990909385E+00 0.36046511467E+00 0.46676118178E+00 0.48024384613E+00
 0.46999923360E+00 0.28692493638E+00 0.11661100608E+00 -.37580474469E-02 -.33950885193E+00
 -.28475772751E+00 -.49723606107E+00 -.31071977588E+00 0.38025301959E-01 0.10627676146E+00
 0.22225301487E+00 0.22975373079E+00 0.14903891894E+00 0.20007624074E+00 0.24578501093E+00
 0.31757874560E+00 0.24466627126E+00 0.13184145092E+00 -.19092101668E+00 -.34674058361E+00
 -.27001224805E+00 -.34179029852E+00 -.18605763124E+00 0.12650717642E+00 0.24014570726E+00
 0.32267880122E+00 0.25835802820E+00 0.21432512910E+00 0.16196563317E+00 0.23541829430E+00
 0.21911284615E+00 0.10032277359E+00 0.43866818525E-01 -.30653785190E+00 -.63655922301E-01
 -.29019128399E+00 -.34382307678E+00 0.31639836338E-02 0.11420790224E+00 0.27155596023E+00
 0.44832235249E+00 0.45745839134E+00 0.44349162328E+00 0.33846076077E+00 0.24331043292E+00
 0.67933776676E-01 -.17192147199E-01 -.89417466747E-01 -.34674058724E+00 -.24932925720E+00
 0.27861706806E-01 -.15057322855E+00 -.53497248933E+00 -.11455547960E+01 -.15599850915E+01
 -.17551548722E+01 -.16729286405E+01 -.14647733860E+01 -.10446425487E+01 -.57820339549E+00
 -.33532710719E+00 -.57448779442E-01 -.50804063841E+00 -.88083352996E-01 0.45753413199E-01
 -.29655218710E-01 0.32149757463E+00 0.49436043826E+00 0.57161063912E+00 0.70760435778E+00
 0.74299944952E+00 0.74202295569E+00 0.64290537892E+00 0.53568308503E+00 0.35387595178E+00
 -.17192152289E-01 -.19092102380E+00 0.24414833088E-01 -.39555891769E+00 -.12642660922E+01
 -.24269675441E+01 -.34375921661E+01 -.44559403270E+01 -.53195180452E+01 -.57014793108E+01
 -.54069860458E+01 -.46011118885E+01 -.34632361420E+01 -.21441132143E+01 -.12230469121E+01
 -.27199955440E+01 -.11912304606E+01 -.34709184048E+00 0.13424945555E+00 0.11250771734E+00
 0.53252420569E+00 0.96733886375E+00 0.11066608180E+01 0.12377726939E+01 0.11858100928E+01
 0.11288777968E+01 0.85043207239E+00 0.53568307898E+00 0.67933761547E-01 0.13184143738E+00
 -.15656369163E+00 -.12651047500E+01 -.29033539704E+01 -.48346270705E+01 -.74741582248E+01
 -.10164037662E+02 -.11886825625E+02 -.12695970956E+02 -.12657104980E+02 -.11762305993E+02
 -.10028189338E+02 -.77500288081E+01 -.50053251508E+01 -.89060727912E+01 -.50294699917E+01
 -.21577363362E+01 -.59546710262E+00 0.21683085233E+00 0.24883980544E+00 0.55227631453E+00
 0.11100597369E+01 0.12852316559E+01 0.14518608271E+01 0.12887441690E+01 0.11288777911E+01
 0.64290536895E+00 0.24331041272E+00 0.24466624334E+00 -.53341224686E+00 -.24319019172E+01
 -.48330382795E+01 -.87853203170E+01 -.12985896928E+02 -.15625235679E+02 -.17448117289E+02
 -.18595292460E+02 -.18995568185E+02 -.18686902071E+02 -.17574949588E+02 -.15524239836E+02
 -.12669075766E+02 -.16774442877E+02 -.12656749338E+02 -.77334760774E+01 -.34482287824E+01
 -.10250644140E+01 0.24608905466E+00 0.46796717701E+00 0.70906815600E+00 0.12591541550E+01
 0.13757356517E+01 0.14518608217E+01 0.11858100848E+01 0.74202294010E+00 0.33846073873E+00
 0.31757870831E+00 -.11373771207E+01 -.34412360083E+01 -.74750972828E+01 -.12984425491E+02
 -.16642422097E+02 -.19666355200E+02 -.22210912849E+02 -.23842388038E+02 -.24683497488E+02
 -.24591987344E+02 -.23771855752E+02 -.22230670905E+02 -.19880485527E+02 -.23432561159E+02
 -.19870477768E+02 -.15543288180E+02 -.10043932469E+02 -.46245387701E+01 -.14637095924E+01
 0.12005171827E+00 0.47228723787E+00 0.69323848281E+00 0.12591541513E+01 0.12852316453E+01
 0.12377726787E+01 0.74299943031E+00 0.44349159669E+00 0.24578496899E+00 -.15522285058E+01
 -.44533529997E+01 -.10167700801E+02 -.15623046613E+02 -.19666922607E+02 -.23648476920E+02
 -.26329030447E+02 -.28391639913E+02 -.29489153520E+02 -.30037615128E+02 -.29573735936E+02
 -.28333432457E+02 -.26256459913E+02 -.29613035842E+02 -.26248330682E+02 -.22255996628E+02
 -.17536000447E+02 -.11767334124E+02 -.53592947998E+01 -.16621270633E+01 0.20445399211E+00
 0.47228723236E+00 0.70906814517E+00 0.11100597236E+01 0.11066607999E+01 0.70760433397E+00
 0.45745835879E+00 0.20007619442E+00 -.17497787278E+01 -.53129568255E+01 -.11890750564E+02
 -.17447873047E+02 -.22212143254E+02 -.26331338299E+02 -.29442340224E+02 -.32048758841E+02
 -.33864363190E+02 -.34787197839E+02 -.34751711042E+02 -.33924932499E+02 -.32084451888E+02
 -.35329227401E+02 -.32073365787E+02 -.28368326562E+02 -.23729947190E+02 -.18755709842E+02
 -.12627046554E+02 -.57923559502E+01 -.16621270710E+01 0.12005170495E+00 0.46796716045E+00
 0.55227629313E+00 0.96733883648E+00 0.57161060804E+00 0.44832231117E+00 0.14903886431E+00
 -.16674245613E+01 -.56932278358E+01 -.12699265455E+02 -.18596230954E+02 -.23845190652E+02
 -.28398782463E+02 -.32054999178E+02 -.35449382411E+02 -.37704170536E+02 -.39301740760E+02
 -.39656401771E+02 -.39219121883E+02 -.37674818143E+02 -.40666010405E+02 -.37719791271E+02
 -.33914790520E+02 -.29604225682E+02 -.24583616731E+02 -.18998120531E+02 -.12627046557E+02
 -.53592948086E+01 -.14637096132E+01 0.24608902364E+00 0.24883977330E+00 0.53252416930E+00
 0.49436039530E+00 0.27155590595E+00 0.22975366670E+00 -.14570762766E+01 -.54000447762E+01
 -.12661266619E+02 -.18997214228E+02 -.24688018625E+02 -.29499186961E+02 -.33878070000E+02
 -.37713492714E+02 -.40583187776E+02 -.42439022784E+02 -.43386017522E+02 -.43456187968E+02
 -.42502469408E+02 -.44893454825E+02 -.42452337328E+02 -.39274048087E+02 -.34714413979E+02
 -.30124135099E+02 -.24583616735E+02 -.18755709851E+02 -.11767334137E+02 -.46245387843E+01
 -.10250644409E+01 0.21683080937E+00 0.11250766269E+00 0.32149751533E+00 0.11420783537E+00
 0.22225294542E+00 -.10351087203E+01 -.45987301982E+01 -.11766325116E+02 -.18687184763E+02
 -.24596857532E+02 -.30049870723E+02 -.34806145489E+02 -.39320275674E+02 -.42451278326E+02
 -.45003609117E+02 -.46198334872E+02 -.46762125591E+02 -.46163000264E+02 -.48096134176E+02
 -.46260944613E+02 -.43433183933E+02 -.39763305331E+02 -.34714413981E+02 -.29604225687E+02
 -.23729947201E+02 -.17536000464E+02 -.10043932492E+02 -.34482288056E+01 -.59546712856E+00
 0.13424941926E+00 -.29655267900E-01 0.31639266565E-02 0.10627670792E+00 -.57535624182E+00
 -.34691854349E+01 -.10031336571E+02 -.17574254060E+02 -.23775475909E+02 -.29583074267E+02
 -.34771262328E+02 -.39678070881E+02 -.43406819837E+02 -.46209291294E+02 -.48035492920E+02
 -.48988387248E+02 -.48967685296E+02 -.50240498160E+02 -.48994881174E+02 -.46696653319E+02
 -.43433183932E+02 -.39274048090E+02 -.33914790526E+02 -.28368326573E+02 -.22255996643E+02
 -.15543288206E+02 -.77334761052E+01 -.21577363698E+01 -.34709187507E+00 0.45753377529E-01
 -.34382311248E+00 0.38025263033E-01 -.34252628092E+00 -.21495072989E+01 -.77474228835E+01
 -.15524602762E+02 -.22231245821E+02 -.28340373433E+02 -.33938913596E+02 -.39237233982E+02
 -.43476954137E+02 -.46777634415E+02 -.48996826828E+02 -.50254052413E+02 -.50723043466E+02
 -.51578423669E+02 -.50698674665E+02 -.48994881174E+02 -.46260944613E+02 -.42452337330E+02
 -.37719791276E+02 -.32073365797E+02 -.26248330698E+02 -.19870477785E+02 -.12656749368E+02
 -.50294700323E+01 -.11912305010E+01 -.88083400744E-01 -.29019133607E+00 -.31071983533E+00
 -.59981710984E-01 -.12218430790E+01 -.50062066142E+01 -.12669172911E+02 -.19878133616E+02
 -.26260443586E+02 -.32090079141E+02 -.37684440276E+02 -.42514762442E+02 -.46174235534E+02
 -.48975578925E+02 -.50725840273E+02 -.51543079775E+02 -.50588504962E+02 -.50136758871E+02
 -.48840669739E+02 -.46643845365E+02 -.43430203727E+02 -.38927907292E+02 -.33803850511E+02
 -.28287052804E+02 -.22105513732E+02 -.15444806484E+02 -.76353914113E+01 -.21346439832E+01
 -.29555744412E+00 0.17135507397E-01 -.30548289303E+00 0.17995592641E-01 -.29345296506E+00
 -.21343551566E+01 -.76389022451E+01 -.15443672806E+02 -.22104196590E+02 -.28288372765E+02
 -.33803101957E+02 -.38928471498E+02 -.43430065497E+02 -.46643876113E+02 -.48840337508E+02
 -.50136599142E+02 -.50136599138E+02 -.50139565828E+02 -.49348764490E+02 -.47564263343E+02
 -.44729024974E+02 -.40922371667E+02 -.35944455684E+02 -.30766516790E+02 -.24884103994E+02
 -.18633976212E+02 -.11240833709E+02 -.41116263701E+01 -.86288035781E+00 0.53713804286E-01
 -.14707847798E+00 -.13369227619E+00 0.34975373442E-01 -.84922375461E+00 -.41105251924E+01
 -.11254240884E+02 -.18615614336E+02 -.24877971791E+02 -.30744892670E+02 -.35986841344E+02
 -.40884849697E+02 -.44782261131E+02 -.47627904599E+02 -.49273714358E+02 -.48840337497E+02