       N       E                     dE             d eps       ncg     rms          rms(c)
DAV:   1     0.347206117692E+03    0.34721E+03   -0.17801E+04  3136   0.159E+03
DAV:   2     0.115347308310E+02   -0.33567E+03   -0.32011E+03  3136   0.327E+02
DAV:   3    -0.164086680990E+02   -0.27943E+02   -0.26709E+02  3648   0.141E+02
DAV:   4    -0.171728652978E+02   -0.76420E+00   -0.76343E+00  3632   0.291E+01
DAV:   5    -0.171905746264E+02   -0.17709E-01   -0.17708E-01  3848   0.354E+00    0.148E+01
RMM:   6    -0.157554589129E+02    0.14351E+01   -0.32958E+01  3143   0.764E+01    0.898E+00
RMM:   7    -0.140104894622E+02    0.17450E+01   -0.60870E+00  3144   0.349E+01    0.102E+00
RMM:   8    -0.139830921143E+02    0.27397E-01   -0.99495E-02  3159   0.320E+00    0.675E-01
RMM:   9    -0.139778318372E+02    0.52603E-02   -0.16979E-02  3190   0.111E+00    0.474E-01
RMM:  10    -0.139734343656E+02    0.43975E-02   -0.58910E-03  3140   0.912E-01    0.143E-01
RMM:  11    -0.139728163339E+02    0.61803E-03   -0.21526E-03  3153   0.507E-01    0.144E-01
RMM:  12    -0.139723212841E+02    0.49505E-03   -0.84847E-04  3151   0.380E-01    0.382E-02
RMM:  13    -0.139721277308E+02    0.19355E-03   -0.20509E-04  3135   0.130E-01    0.304E-02
RMM:  14    -0.139721103540E+02    0.17377E-04   -0.63727E-05  2888   0.747E-02    0.204E-02
RMM:  15    -0.139721460576E+02   -0.35704E-04   -0.25742E-05  2130   0.517E-02    0.104E-02
RMM:  16    -0.139722589418E+02   -0.11288E-03   -0.15766E-05  2081   0.381E-02    0.690E-03
RMM:  17    -0.139723028811E+02   -0.43939E-04   -0.66934E-06  2014   0.217E-02    0.315E-03
RMM:  18    -0.139723330507E+02   -0.30170E-04   -0.36954E-06  1985   0.154E-02    0.262E-03
RMM:  19    -0.139723500177E+02   -0.16967E-04   -0.25037E-06  1982   0.151E-02    0.206E-03
RMM:  20    -0.139723606021E+02   -0.10584E-04   -0.81562E-07  1915   0.103E-02    0.128E-03
RMM:  21    -0.139723743481E+02   -0.13746E-04   -0.45827E-07  1860   0.554E-03    0.771E-04
RMM:  22    -0.139723803217E+02   -0.59735E-05   -0.10650E-07  1229   0.376E-03
   1 F= -.13972380E+02 E0= -.13970861E+02  d E =-.139724E+02
