 vasp.5.3.3 18Dez12 (build Jan 17 2013 15:17:09) complex                        
  
 executed on             LinuxIFC date 2017.11.27  19:51:07
 running on    8 total cores
 distrk:  each k-point on    8 cores,    1 groups
 distr:  one band on NCORES_PER_BAND=   1 cores,    8 groups


--------------------------------------------------------------------------------------------------------


 INCAR:
 POTCAR:    PAW_PBE Cu 22Jun2005                  

 ----------------------------------------------------------------------------- 
|                                                                             |
|           W    W    AA    RRRRR   N    N  II  N    N   GGGG   !!!           |
|           W    W   A  A   R    R  NN   N  II  NN   N  G    G  !!!           |
|           W    W  A    A  R    R  N N  N  II  N N  N  G       !!!           |
|           W WW W  AAAAAA  RRRRR   N  N N  II  N  N N  G  GGG   !            |
|           WW  WW  A    A  R   R   N   NN  II  N   NN  G    G                |
|           W    W  A    A  R    R  N    N  II  N    N   GGGG   !!!           |
|                                                                             |
|      For optimal performance we recommend that you set                      |
|        NPAR = 4 - approx SQRT( number of cores)                             |
|      (number of cores/NPAR must be integer)                                 |
|      This setting will greatly improve the performance of VASP for DFT.     |
|      The default NPAR=number of cores might be grossly inefficient          |
|      on modern multi-core architectures or massively parallel machines.     |
|      Do your own testing.                                                   |
|      Unfortunately you need to use the default for hybrid, GW and RPA       |
|      calculations.                                                          |
|                                                                             |
 ----------------------------------------------------------------------------- 

 POTCAR:    PAW_PBE Cu 22Jun2005                  
  local pseudopotential read in
  partial core-charges read in
  partial kinetic energy density read in
  atomic valenz-charges read in
  non local Contribution for L=           2  read in
    real space projection operators read in
  non local Contribution for L=           2  read in
    real space projection operators read in
  non local Contribution for L=           0  read in
    real space projection operators read in
  non local Contribution for L=           0  read in
    real space projection operators read in
  non local Contribution for L=           1  read in
    real space projection operators read in
  non local Contribution for L=           1  read in
    real space projection operators read in
    PAW grid and wavefunctions read in
 
   number of l-projection  operators is LMAX  =           6
   number of lm-projection operators is LMMAX =          18
 
  PAW_PBE Cu 22Jun2005                  :
 energy of atom  1       EATOM=-1390.9808
 kinetic energy error for atom=    0.0097 (will be added to EATOM!!)
 
 
 POSCAR: Cu\(1\1\1)                              
  positions in direct lattice
  velocities in cartesian coordinates
 exchange correlation table for  LEXCH =        8
   RHO(1)=    0.500       N(1)  =     2000
   RHO(2)=  100.500       N(2)  =     4000
 


--------------------------------------------------------------------------------------------------------


 ion  position               nearest neighbor table
   1  0.000  0.000  0.000-   2 2.57   2 2.57   2 2.57
   2  0.333  0.667  0.099-   4 2.56   4 2.56   4 2.56   1 2.57   1 2.57   1 2.57
   3  0.000  1.000  0.294-   4 2.55   4 2.55   4 2.55
   4  0.667  0.333  0.197-   3 2.55   3 2.55   3 2.55   2 2.56   2 2.56   2 2.56
 
  LATTYP: Found a hexagonal cell.
 ALAT       =     2.5717000961
 C/A-ratio  =     8.2822255836
  
  Lattice vectors:
  
 A1 = (   2.5717000961,   0.0000000000,   0.0000000000)
 A2 = (  -1.2858500481,   2.2271576142,   0.0000000000)
 A3 = (   0.0000000000,   0.0000000000,  21.2994003296)


Analysis of symmetry for initial positions (statically):
=====================================================================
 Subroutine PRICEL returns:
 Original cell was already a primitive cell.
 

 Routine SETGRP: Setting up the symmetry group for a 
 hexagonal supercell.


 Subroutine GETGRP returns: Found  2 space group operations
 (whereof  2 operations were pure point group operations)
 out of a pool of 24 trial point group operations.


The static configuration has the point symmetry C_1h.


Analysis of symmetry for dynamics (positions and initial velocities):
=====================================================================
 Subroutine PRICEL returns:
 Original cell was already a primitive cell.
 

 Routine SETGRP: Setting up the symmetry group for a 
 hexagonal supercell.


 Subroutine GETGRP returns: Found  2 space group operations
 (whereof  2 operations were pure point group operations)
 out of a pool of 24 trial point group operations.


The dynamic configuration has the point symmetry C_1h.


Analysis of constrained symmetry for selective dynamics:
=====================================================================
 Subroutine PRICEL returns:
 Original cell was already a primitive cell.
 

 Routine SETGRP: Setting up the symmetry group for a 
 hexagonal supercell.


 Subroutine GETGRP returns: Found  2 space group operations
 (whereof  2 operations were pure point group operations)
 out of a pool of 24 trial point group operations.


The constrained configuration has the point symmetry C_1h.


 irot  :   1
 --------------------------------------------------------------------
 isymop:   1   0   0
           0   1   0
           0   0   1

 gtrans:     0.0000000     0.0000000     0.0000000

 ptrans:     0.0000000     0.0000000     0.0000000
 rotmap:
 (   1->   1)  (   2->   2)  (   3->   3)  (   4->   4) 


 irot  :   2
 --------------------------------------------------------------------
 isymop:   0  -1   0
          -1   0   0
           0   0   1

 gtrans:     0.0000000     0.0000000     0.0000000

 ptrans:     0.0000000     0.0000000     0.0000000
 rotmap:
 (   1->   1)  (   2->   2)  (   3->   3)  (   4->   4) 
 
 
 KPOINTS: K-POINTS                                

Automatic generation of k-mesh.
Space group operators:
 irot       det(A)        alpha          n_x          n_y          n_z        tau_x        tau_y        tau_z
    1     1.000000     0.000001     1.000000     0.000000     0.000000     0.000000     0.000000     0.000000
    2    -1.000000   180.000000    -0.500000    -0.866025     0.000000     0.000000     0.000000     0.000000
 
 Subroutine IBZKPT returns following result:
 ===========================================
 
 Found     49 irreducible k-points:
 
 Following reciprocal coordinates:
            Coordinates               Weight
  0.000000  0.000000  0.000000      1.000000
  0.076923  0.000000  0.000000      4.000000
  0.153846  0.000000  0.000000      4.000000
  0.230769  0.000000  0.000000      4.000000
  0.307692  0.000000  0.000000      4.000000
  0.384615  0.000000  0.000000      4.000000
  0.461538  0.000000  0.000000      4.000000
  0.076923  0.076923  0.000000      2.000000
  0.153846  0.076923  0.000000      4.000000
  0.230769  0.076923  0.000000      4.000000
  0.307692  0.076923  0.000000      4.000000
  0.384615  0.076923  0.000000      4.000000
  0.461538  0.076923  0.000000      4.000000
 -0.461538  0.076923  0.000000      4.000000
 -0.384615  0.076923  0.000000      4.000000
 -0.307692  0.076923  0.000000      4.000000
 -0.230769  0.076923  0.000000      4.000000
 -0.153846  0.076923  0.000000      4.000000
 -0.076923  0.076923  0.000000      2.000000
  0.153846  0.153846  0.000000      2.000000
  0.230769  0.153846  0.000000      4.000000
  0.307692  0.153846  0.000000      4.000000
  0.384615  0.153846  0.000000      4.000000
  0.461538  0.153846  0.000000      4.000000
 -0.461538  0.153846  0.000000      4.000000
 -0.384615  0.153846  0.000000      4.000000
 -0.307692  0.153846  0.000000      4.000000
 -0.230769  0.153846  0.000000      4.000000
 -0.153846  0.153846  0.000000      2.000000
  0.230769  0.230769  0.000000      2.000000
  0.307692  0.230769  0.000000      4.000000
  0.384615  0.230769  0.000000      4.000000
  0.461538  0.230769  0.000000      4.000000
 -0.461538  0.230769  0.000000      4.000000
 -0.384615  0.230769  0.000000      4.000000
 -0.307692  0.230769  0.000000      4.000000
 -0.230769  0.230769  0.000000      2.000000
  0.307692  0.307692  0.000000      2.000000
  0.384615  0.307692  0.000000      4.000000
  0.461538  0.307692  0.000000      4.000000
 -0.461538  0.307692  0.000000      4.000000
 -0.384615  0.307692  0.000000      4.000000
 -0.307692  0.307692  0.000000      2.000000
  0.384615  0.384615  0.000000      2.000000
  0.461538  0.384615  0.000000      4.000000
 -0.461538  0.384615  0.000000      4.000000
 -0.384615  0.384615  0.000000      2.000000
  0.461538  0.461538  0.000000      2.000000
 -0.461538  0.461538  0.000000      2.000000
 
 Following cartesian coordinates:
            Coordinates               Weight
  0.000000  0.000000  0.000000      1.000000
  0.029911  0.017269  0.000000      4.000000
  0.059823  0.034539  0.000000      4.000000
  0.089734  0.051808  0.000000      4.000000
  0.119645  0.069077  0.000000      4.000000
  0.149557  0.086347  0.000000      4.000000
  0.179468  0.103616  0.000000      4.000000
  0.029911  0.051808  0.000000      2.000000
  0.059823  0.069077  0.000000      4.000000
  0.089734  0.086347  0.000000      4.000000
  0.119645  0.103616  0.000000      4.000000
  0.149557  0.120885  0.000000      4.000000
  0.179468  0.138155  0.000000      4.000000
 -0.179468 -0.069077  0.000000      4.000000
 -0.149557 -0.051808  0.000000      4.000000
 -0.119645 -0.034539  0.000000      4.000000
 -0.089734 -0.017269  0.000000      4.000000
 -0.059823  0.000000  0.000000      4.000000
 -0.029911  0.017269  0.000000      2.000000
  0.059823  0.103616  0.000000      2.000000
  0.089734  0.120885  0.000000      4.000000
  0.119645  0.138155  0.000000      4.000000
  0.149557  0.155424  0.000000      4.000000
  0.179468  0.172693  0.000000      4.000000
 -0.179468 -0.034539  0.000000      4.000000
 -0.149557 -0.017269  0.000000      4.000000
 -0.119645  0.000000  0.000000      4.000000
 -0.089734  0.017269  0.000000      4.000000
 -0.059823  0.034539  0.000000      2.000000
  0.089734  0.155424  0.000000      2.000000
  0.119645  0.172693  0.000000      4.000000
  0.149557  0.189963  0.000000      4.000000
  0.179468  0.207232  0.000000      4.000000
 -0.179468  0.000000  0.000000      4.000000
 -0.149557  0.017269  0.000000      4.000000
 -0.119645  0.034539  0.000000      4.000000
 -0.089734  0.051808  0.000000      2.000000
  0.119645  0.207232  0.000000      2.000000
  0.149557  0.224501  0.000000      4.000000
  0.179468  0.241771  0.000000      4.000000
 -0.179468  0.034539  0.000000      4.000000
 -0.149557  0.051808  0.000000      4.000000
 -0.119645  0.069077  0.000000      2.000000
  0.149557  0.259040  0.000000      2.000000
  0.179468  0.276309  0.000000      4.000000
 -0.179468  0.069077  0.000000      4.000000
 -0.149557  0.086347  0.000000      2.000000
  0.179468  0.310848  0.000000      2.000000
 -0.179468  0.103616  0.000000      2.000000
 


--------------------------------------------------------------------------------------------------------




 Dimension of arrays:
   k-points           NKPTS =     49   k-points in BZ     NKDIM =     49   number of bands    NBANDS=     32
   number of dos      NEDOS =    301   number of ions     NIONS =      4
   non local maximal  LDIM  =      6   non local SUM 2l+1 LMDIM =     18
   total plane-waves  NPLWV =  21952
   max r-space proj   IRMAX =      1   max aug-charges    IRDMAX=   5411
   dimension x,y,z NGX =    14 NGY =   14 NGZ =  112
   dimension x,y,z NGXF=    28 NGYF=   28 NGZF=  224
   support grid    NGXF=    28 NGYF=   28 NGZF=  224
   ions per type =               4
 NGX,Y,Z   is equivalent  to a cutoff of   9.05,  9.05,  8.74 a.u.
 NGXF,Y,Z  is equivalent  to a cutoff of  18.10, 18.10, 17.48 a.u.


 I would recommend the setting:
   dimension x,y,z NGX =    13 NGY =   13 NGZ =  111
 SYSTEM =  Cu111                                   
 POSCAR =  Cu\(1\1\1)                              

 Startparameter for this run:
   NWRITE =      0    write-flag & timer
   PREC   = normal    normal or accurate (medium, high low for compatibility)
   ISTART =      0    job   : 0-new  1-cont  2-samecut
   ICHARG =      2    charge: 1-file 2-atom 10-const
   ISPIN  =      1    spin polarized calculation?
   LNONCOLLINEAR =      F non collinear calculations
   LSORBIT =      F    spin-orbit coupling
   INIWAV =      1    electr: 0-lowe 1-rand  2-diag
   LASPH  =      F    aspherical Exc in radial PAW
   METAGGA=      F    non-selfconsistent MetaGGA calc.

 Electronic Relaxation 1
   ENCUT  =  450.0 eV  33.07 Ry    5.75 a.u.   4.45  4.45 36.84*2*pi/ulx,y,z
   ENINI  =  450.0     initial cutoff
   ENAUG  =  587.0 eV  augmentation charge cutoff
   NELM   =     60;   NELMIN=  2; NELMDL= -5     # of ELM steps 
   EDIFF  = 0.1E-04   stopping-criterion for ELM
   LREAL  =      F    real-space projection
   NLSPLINE    = F    spline interpolate recip. space projectors
   LCOMPAT=      F    compatible to vasp.4.4
   GGA_COMPAT  = T    GGA compatible to vasp.4.4-vasp.4.6
   LMAXPAW     = -100 max onsite density
   LMAXMIX     =    2 max onsite mixed and CHGCAR
   VOSKOWN=      0    Vosko Wilk Nusair interpolation
   ROPT   =    0.00000
 Ionic relaxation
   EDIFFG = -.1E-01   stopping-criterion for IOM
   NSW    =      1    number of steps for IOM
   NBLOCK =      1;   KBLOCK =      1    inner block; outer block 
   IBRION =      2    ionic relax: 0-MD 1-quasi-New 2-CG
   NFREE  =      1    steps in history (QN), initial steepest desc. (CG)
   ISIF   =      2    stress and relaxation
   IWAVPR =     11    prediction:  0-non 1-charg 2-wave 3-comb
   ISYM   =      2    0-nonsym 1-usesym 2-fastsym
   LCORR  =      T    Harris-Foulkes like correction to forces

   POTIM  = 0.1000    time-step for ionic-motion
   TEIN   =    0.0    initial temperature
   TEBEG  =    0.0;   TEEND  =   0.0 temperature during run
   SMASS  =  -3.00    Nose mass-parameter (am)
   estimated Nose-frequenzy (Omega)   =  0.10E-29 period in steps =****** mass=  -0.151E-27a.u.
   SCALEE = 1.0000    scale energy and forces
   NPACO  =    256;   APACO  = 16.0  distance and # of slots for P.C.
   PSTRESS=    0.0 pullay stress

  Mass of Ions in am
   POMASS =  63.55
  Ionic Valenz
   ZVAL   =  11.00
  Atomic Wigner-Seitz radii
   RWIGS  =  -1.00
  virtual crystal weights 
   VCA    =   1.00
   NELECT =      44.0000    total number of electrons
   NUPDOWN=      -1.0000    fix difference up-down

 DOS related values:
   EMIN   =  10.00;   EMAX   =-10.00  energy-range for DOS
   EFERMI =   0.00
   ISMEAR =     1;   SIGMA  =   0.20  broadening in eV -4-tet -1-fermi 0-gaus

 Electronic relaxation 2 (details)
   IALGO  =     68    algorithm
   LDIAG  =      T    sub-space diagonalisation (order eigenvalues)
   LSUBROT=      T    optimize rotation matrix (better conditioning)
   TURBO    =      0    0=normal 1=particle mesh
   IRESTART =      0    0=no restart 2=restart with 2 vectors
   NREBOOT  =      0    no. of reboots
   NMIN     =      0    reboot dimension
   EREF     =   0.00    reference energy to select bands
   IMIX   =      4    mixing-type and parameters
     AMIX     =   0.40;   BMIX     =  1.00
     AMIX_MAG =   1.60;   BMIX_MAG =  1.00
     AMIN     =   0.10
     WC   =   100.;   INIMIX=   1;  MIXPRE=   1;  MAXMIX= -45

 Intra band minimization:
   WEIMIN = 0.0010     energy-eigenvalue tresh-hold
   EBREAK =  0.78E-07  absolut break condition
   DEPER  =   0.30     relativ break condition  

   TIME   =   0.40     timestep for ELM

  volume/ion in A,a.u.               =      30.50       205.81
  Fermi-wavevector in a.u.,A,eV,Ry     =   1.165323  2.202140 18.476396  1.357977
  Thomas-Fermi vector in A             =   2.301850
 
 Write flags
   LWAVE  =      F    write WAVECAR
   LCHARG =      F    write CHGCAR
   LVTOT  =      F    write LOCPOT, total local potential
   LVHAR  =      T    write LOCPOT, Hartree potential only
   LELF   =      F    write electronic localiz. function (ELF)
   LORBIT =      0    0 simple, 1 ext, 2 COOP (PROOUT)


 Dipole corrections
   LMONO  =      F    monopole corrections only (constant potential shift)
   LDIPOL =      F    correct potential (dipole corrections)
   IDIPOL =      0    1-x, 2-y, 3-z, 4-all directions 
   EPSILON=  1.0000000 bulk dielectric constant

 Exchange correlation treatment:
   GGA     =    --    GGA type
   LEXCH   =     8    internal setting for exchange type
   VOSKOWN=      0    Vosko Wilk Nusair interpolation
   LHFCALC =     F    Hartree Fock is set to
   LHFONE  =     F    Hartree Fock one center treatment
   AEXX    =    0.0000 exact exchange contribution

 Linear response parameters
   LEPSILON=     F    determine dielectric tensor
   LRPA    =     F    only Hartree local field effects (RPA)
   LNABLA  =     F    use nabla operator in PAW spheres
   LVEL    =     F    velocity operator in full k-point grid
   LINTERFAST=   F  fast interpolation
   KINTER  =     0    interpolate to denser k-point grid
   CSHIFT  =0.1000    complex shift for real part using Kramers Kronig
   OMEGAMAX=  -1.0    maximum frequency
   DEG_THRESHOLD= 0.2000000E-02 threshold for treating states as degnerate
   RTIME   =    0.100 relaxation time in fs

 Orbital magnetization related:
   ORBITALMAG=     F  switch on orbital magnetization
   LCHIMAG   =     F  perturbation theory with respect to B field
   DQ        =  0.001000  dq finite difference perturbation B field



--------------------------------------------------------------------------------------------------------


 conjugate gradient relaxation of ions
   using selective dynamics as specified on POSCAR
 charge density and potential will be updated during run
 non-spin polarized calculation
 RMM-DIIS sequential band-by-band and
  variant of blocked Davidson during initial phase
 perform sub-space diagonalisation
    before iterative eigenvector-optimisation
 modified Broyden-mixing scheme, WC =      100.0
 initial mixing is a Kerker type mixing with AMIX =  0.4000 and BMIX =      1.0000
 Hartree-type preconditioning will be used
 using additional bands           10
 reciprocal scheme for non local part
 use partial core corrections
 calculate Harris-corrections to forces 
   (improved forces if not selfconsistent)
 use gradient corrections 
 use of overlap-Matrix (Vanderbilt PP)
 Methfessel and Paxton  Order N= 1 SIGMA  =   0.20


--------------------------------------------------------------------------------------------------------


  energy-cutoff  :      450.00
  volume of cell :      121.99
      direct lattice vectors                 reciprocal lattice vectors
     2.571700096  0.000000000  0.000000000     0.388847829  0.224501399  0.000000000
    -1.285850048  2.227157614  0.000000000     0.000000000  0.449002798  0.000000000
     0.000000000  0.000000000 21.299400330     0.000000000  0.000000000  0.046949679

  length of vectors
     2.571700096  2.571700096 21.299400330     0.449002798  0.449002798  0.046949679


 
 k-points in units of 2pi/SCALE and weight: K-POINTS                                
   0.00000000  0.00000000  0.00000000       0.006
   0.02991137  0.01726934  0.00000000       0.024
   0.05982274  0.03453868  0.00000000       0.024
   0.08973411  0.05180802  0.00000000       0.024
   0.11964549  0.06907735  0.00000000       0.024
   0.14955686  0.08634669  0.00000000       0.024
   0.17946823  0.10361603  0.00000000       0.024
   0.02991137  0.05180802  0.00000000       0.012
   0.05982274  0.06907735  0.00000000       0.024
   0.08973411  0.08634669  0.00000000       0.024
   0.11964549  0.10361603  0.00000000       0.024
   0.14955686  0.12088537  0.00000000       0.024
   0.17946823  0.13815471  0.00000000       0.024
  -0.17946823 -0.06907735  0.00000000       0.024
  -0.14955686 -0.05180802  0.00000000       0.024
  -0.11964549 -0.03453868  0.00000000       0.024
  -0.08973411 -0.01726934  0.00000000       0.024
  -0.05982274  0.00000000  0.00000000       0.024
  -0.02991137  0.01726934  0.00000000       0.012
   0.05982274  0.10361603  0.00000000       0.012
   0.08973411  0.12088537  0.00000000       0.024
   0.11964549  0.13815471  0.00000000       0.024
   0.14955686  0.15542405  0.00000000       0.024
   0.17946823  0.17269338  0.00000000       0.024
  -0.17946823 -0.03453868  0.00000000       0.024
  -0.14955686 -0.01726934  0.00000000       0.024
  -0.11964549  0.00000000  0.00000000       0.024
  -0.08973411  0.01726934  0.00000000       0.024
  -0.05982274  0.03453868  0.00000000       0.012
   0.08973411  0.15542405  0.00000000       0.012
   0.11964549  0.17269338  0.00000000       0.024
   0.14955686  0.18996272  0.00000000       0.024
   0.17946823  0.20723206  0.00000000       0.024
  -0.17946823  0.00000000  0.00000000       0.024
  -0.14955686  0.01726934  0.00000000       0.024
  -0.11964549  0.03453868  0.00000000       0.024
  -0.08973411  0.05180802  0.00000000       0.012
   0.11964549  0.20723206  0.00000000       0.012
   0.14955686  0.22450140  0.00000000       0.024
   0.17946823  0.24177074  0.00000000       0.024
  -0.17946823  0.03453868  0.00000000       0.024
  -0.14955686  0.05180802  0.00000000       0.024
  -0.11964549  0.06907735  0.00000000       0.012
   0.14955686  0.25904008  0.00000000       0.012
   0.17946823  0.27630941  0.00000000       0.024
  -0.17946823  0.06907735  0.00000000       0.024
  -0.14955686  0.08634669  0.00000000       0.012
   0.17946823  0.31084809  0.00000000       0.012
  -0.17946823  0.10361603  0.00000000       0.012
 
 k-points in reciprocal lattice and weights: K-POINTS                                
   0.00000000  0.00000000  0.00000000       0.006
   0.07692308  0.00000000  0.00000000       0.024
   0.15384615  0.00000000  0.00000000       0.024
   0.23076923  0.00000000  0.00000000       0.024
   0.30769231  0.00000000  0.00000000       0.024
   0.38461538  0.00000000  0.00000000       0.024
   0.46153846  0.00000000  0.00000000       0.024
   0.07692308  0.07692308  0.00000000       0.012
   0.15384615  0.07692308  0.00000000       0.024
   0.23076923  0.07692308  0.00000000       0.024
   0.30769231  0.07692308  0.00000000       0.024
   0.38461538  0.07692308  0.00000000       0.024
   0.46153846  0.07692308  0.00000000       0.024
  -0.46153846  0.07692308  0.00000000       0.024
  -0.38461538  0.07692308  0.00000000       0.024
  -0.30769231  0.07692308  0.00000000       0.024
  -0.23076923  0.07692308  0.00000000       0.024
  -0.15384615  0.07692308  0.00000000       0.024
  -0.07692308  0.07692308  0.00000000       0.012
   0.15384615  0.15384615  0.00000000       0.012
   0.23076923  0.15384615  0.00000000       0.024
   0.30769231  0.15384615  0.00000000       0.024
   0.38461538  0.15384615  0.00000000       0.024
   0.46153846  0.15384615  0.00000000       0.024
  -0.46153846  0.15384615  0.00000000       0.024
  -0.38461538  0.15384615  0.00000000       0.024
  -0.30769231  0.15384615  0.00000000       0.024
  -0.23076923  0.15384615  0.00000000       0.024
  -0.15384615  0.15384615  0.00000000       0.012
   0.23076923  0.23076923  0.00000000       0.012
   0.30769231  0.23076923  0.00000000       0.024
   0.38461538  0.23076923  0.00000000       0.024
   0.46153846  0.23076923  0.00000000       0.024
  -0.46153846  0.23076923  0.00000000       0.024
  -0.38461538  0.23076923  0.00000000       0.024
  -0.30769231  0.23076923  0.00000000       0.024
  -0.23076923  0.23076923  0.00000000       0.012
   0.30769231  0.30769231  0.00000000       0.012
   0.38461538  0.30769231  0.00000000       0.024
   0.46153846  0.30769231  0.00000000       0.024
  -0.46153846  0.30769231  0.00000000       0.024
  -0.38461538  0.30769231  0.00000000       0.024
  -0.30769231  0.30769231  0.00000000       0.012
   0.38461538  0.38461538  0.00000000       0.012
   0.46153846  0.38461538  0.00000000       0.024
  -0.46153846  0.38461538  0.00000000       0.024
  -0.38461538  0.38461538  0.00000000       0.012
   0.46153846  0.46153846  0.00000000       0.012
  -0.46153846  0.46153846  0.00000000       0.012
 
 position of ions in fractional coordinates (direct lattice) 
   0.00000000  0.00000000  0.00000000
   0.33333001  0.66667002  0.09859000
   0.00000473  0.99999527  0.29387060
   0.66666776  0.33333227  0.19667340
 
 position of ions in cartesian coordinates  (Angst):
   0.00000000  0.00000000  0.00000000
  -0.00001288  1.48477922  2.09990790
  -1.28583180  2.22714708  6.25926766
   1.28585422  0.74238351  4.18902559
 


--------------------------------------------------------------------------------------------------------


 k-point  1 :   0.0000 0.0000 0.0000  plane waves:    2683
 k-point  2 :   0.0769 0.0000 0.0000  plane waves:    2693
 k-point  3 :   0.1538 0.0000 0.0000  plane waves:    2686
 k-point  4 :   0.2308 0.0000 0.0000  plane waves:    2672
 k-point  5 :   0.3077 0.0000 0.0000  plane waves:    2650
 k-point  6 :   0.3846 0.0000 0.0000  plane waves:    2640
 k-point  7 :   0.4615 0.0000 0.0000  plane waves:    2620
 k-point  8 :   0.0769 0.0769 0.0000  plane waves:    2691
 k-point  9 :   0.1538 0.0769 0.0000  plane waves:    2683
 k-point 10 :   0.2308 0.0769 0.0000  plane waves:    2653
 k-point 11 :   0.3077 0.0769 0.0000  plane waves:    2648
 k-point 12 :   0.3846 0.0769 0.0000  plane waves:    2612
 k-point 13 :   0.4615 0.0769 0.0000  plane waves:    2612
 k-point 14 :  -0.4615 0.0769 0.0000  plane waves:    2612
 k-point 15 :  -0.3846 0.0769 0.0000  plane waves:    2648
 k-point 16 :  -0.3077 0.0769 0.0000  plane waves:    2653
 k-point 17 :  -0.2308 0.0769 0.0000  plane waves:    2683
 k-point 18 :  -0.1538 0.0769 0.0000  plane waves:    2691
 k-point 19 :  -0.0769 0.0769 0.0000  plane waves:    2693
 k-point 20 :   0.1538 0.1538 0.0000  plane waves:    2663
 k-point 21 :   0.2308 0.1538 0.0000  plane waves:    2652
 k-point 22 :   0.3077 0.1538 0.0000  plane waves:    2624
 k-point 23 :   0.3846 0.1538 0.0000  plane waves:    2615
 k-point 24 :   0.4615 0.1538 0.0000  plane waves:    2615
 k-point 25 :  -0.4615 0.1538 0.0000  plane waves:    2624
 k-point 26 :  -0.3846 0.1538 0.0000  plane waves:    2652
 k-point 27 :  -0.3077 0.1538 0.0000  plane waves:    2663
 k-point 28 :  -0.2308 0.1538 0.0000  plane waves:    2683
 k-point 29 :  -0.1538 0.1538 0.0000  plane waves:    2686
 k-point 30 :   0.2308 0.2308 0.0000  plane waves:    2628
 k-point 31 :   0.3077 0.2308 0.0000  plane waves:    2630
 k-point 32 :   0.3846 0.2308 0.0000  plane waves:    2626
 k-point 33 :   0.4615 0.2308 0.0000  plane waves:    2630
 k-point 34 :  -0.4615 0.2308 0.0000  plane waves:    2628
 k-point 35 :  -0.3846 0.2308 0.0000  plane waves:    2652
 k-point 36 :  -0.3077 0.2308 0.0000  plane waves:    2653
 k-point 37 :  -0.2308 0.2308 0.0000  plane waves:    2672
 k-point 38 :   0.3077 0.3077 0.0000  plane waves:    2632
 k-point 39 :   0.3846 0.3077 0.0000  plane waves:    2632
 k-point 40 :   0.4615 0.3077 0.0000  plane waves:    2630
 k-point 41 :  -0.4615 0.3077 0.0000  plane waves:    2624
 k-point 42 :  -0.3846 0.3077 0.0000  plane waves:    2648
 k-point 43 :  -0.3077 0.3077 0.0000  plane waves:    2650
 k-point 44 :   0.3846 0.3846 0.0000  plane waves:    2626
 k-point 45 :   0.4615 0.3846 0.0000  plane waves:    2615
 k-point 46 :  -0.4615 0.3846 0.0000  plane waves:    2612
 k-point 47 :  -0.3846 0.3846 0.0000  plane waves:    2640
 k-point 48 :   0.4615 0.4615 0.0000  plane waves:    2612
 k-point 49 :  -0.4615 0.4615 0.0000  plane waves:    2620

 maximum and minimum number of plane-waves per node :      2693     2612

 maximum number of plane-waves:      2693
 maximum index in each direction: 
   IXMAX=    4   IYMAX=    4   IZMAX=   36
   IXMIN=   -4   IYMIN=   -4   IZMIN=  -36

 WARNING: aliasing errors must be expected set NGX to  18 to avoid them
 WARNING: aliasing errors must be expected set NGY to  18 to avoid them
 WARNING: aliasing errors must be expected set NGZ to 146 to avoid them
 aliasing errors are usually negligible using standard VASP settings
 and one can safely disregard these warnings

 serial   3D FFT for wavefunctions
 parallel 3D FFT for charge:
    minimum data exchange during FFTs selected (reduces bandwidth)


 total amount of memory used by VASP on root node    60933. kBytes
========================================================================

   base      :      30000. kBytes
   nonl-proj :      19195. kBytes
   fftplans  :        904. kBytes
   grid      :       2092. kBytes
   one-center:         62. kBytes
   wavefun   :       8680. kBytes
 
 Broyden mixing: mesh for mixing (old mesh)
   NGX =  9   NGY =  9   NGZ = 73
  (NGX  = 28   NGY  = 28   NGZ  =224)
  gives a total of   5913 points

 initial charge density was supplied:
 charge density of overlapping atoms calculated
 number of electron      44.0000000 magnetization 
 keeping initial charge density in first step


--------------------------------------------------------------------------------------------------------


 Maximum index for augmentation-charges          785 (set IRDMAX)


--------------------------------------------------------------------------------------------------------


 First call to EWALD:  gamma=   0.357
 Maximum number of real-space cells 6x 6x 1
 Maximum number of reciprocal cells 2x 2x10

 FEWALD executed in parallel
    FEWALD:  cpu time    0.00: real time    0.00


----------------------------------------- Iteration    1(   1)  ---------------------------------------


    POTLOK:  cpu time    0.07: real time    0.07
    SETDIJ:  cpu time    0.00: real time    0.00
     EDDAV:  cpu time    2.92: real time    2.93
       DOS:  cpu time    0.00: real time    0.00
    --------------------------------------------
      LOOP:  cpu time    2.99: real time    3.01

 eigenvalue-minimisations  :  3136
 total energy-change (2. order) : 0.3472061E+03  (-0.1780114E+04)
 number of electron      44.0000000 magnetization 
 augmentation part       44.0000000 magnetization 

 Free energy of the ion-electron system (eV)
  ---------------------------------------------------
  alpha Z        PSCENC =        95.91655142
  Ewald energy   TEWEN  =     16486.15309932
  -1/2 Hartree   DENC   =    -21847.22436455
  -exchange  EXHF       =         0.00000000
  -V(xc)+E(xc)   XCENC  =       182.03753322
  PAW double counting   =      4912.82663951    -5336.19386850
  entropy T*S    EENTRO =         0.00615139
  eigenvalues    EBANDS =       289.79989791
  atomic energy  EATOM  =      5563.88447798
  ---------------------------------------------------
  free energy    TOTEN  =       347.20611769 eV

  energy without entropy =      347.19996630  energy(sigma->0) =      347.20406723


--------------------------------------------------------------------------------------------------------




----------------------------------------- Iteration    1(   2)  ---------------------------------------


     EDDAV:  cpu time    2.91: real time    2.92
       DOS:  cpu time    0.00: real time    0.00
    --------------------------------------------
      LOOP:  cpu time    2.91: real time    2.92

 eigenvalue-minimisations  :  3136
 total energy-change (2. order) :-0.3356714E+03  (-0.3201114E+03)
 number of electron      44.0000000 magnetization 
 augmentation part       44.0000000 magnetization 

 Free energy of the ion-electron system (eV)
  ---------------------------------------------------
  alpha Z        PSCENC =        95.91655142
  Ewald energy   TEWEN  =     16486.15309932
  -1/2 Hartree   DENC   =    -21847.22436455
  -exchange  EXHF       =         0.00000000
  -V(xc)+E(xc)   XCENC  =       182.03753322
  PAW double counting   =      4912.82663951    -5336.19386850
  entropy T*S    EENTRO =        -0.00023115
  eigenvalues    EBANDS =       -45.86510641
  atomic energy  EATOM  =      5563.88447798
  ---------------------------------------------------
  free energy    TOTEN  =        11.53473083 eV

  energy without entropy =       11.53496198  energy(sigma->0) =       11.53480788


--------------------------------------------------------------------------------------------------------




----------------------------------------- Iteration    1(   3)  ---------------------------------------


     EDDAV:  cpu time    3.27: real time    3.29
       DOS:  cpu time    0.00: real time    0.00
    --------------------------------------------
      LOOP:  cpu time    3.27: real time    3.29

 eigenvalue-minimisations  :  3648
 total energy-change (2. order) :-0.2794340E+02  (-0.2670939E+02)
 number of electron      44.0000000 magnetization 
 augmentation part       44.0000000 magnetization 

 Free energy of the ion-electron system (eV)
  ---------------------------------------------------
  alpha Z        PSCENC =        95.91655142
  Ewald energy   TEWEN  =     16486.15309932
  -1/2 Hartree   DENC   =    -21847.22436455
  -exchange  EXHF       =         0.00000000
  -V(xc)+E(xc)   XCENC  =       182.03753322
  PAW double counting   =      4912.82663951    -5336.19386850
  entropy T*S    EENTRO =        -0.01541645
  eigenvalues    EBANDS =       -73.79332004
  atomic energy  EATOM  =      5563.88447798
  ---------------------------------------------------
  free energy    TOTEN  =       -16.40866810 eV

  energy without entropy =      -16.39325165  energy(sigma->0) =      -16.40352928


--------------------------------------------------------------------------------------------------------




----------------------------------------- Iteration    1(   4)  ---------------------------------------


     EDDAV:  cpu time    3.26: real time    3.27
       DOS:  cpu time    0.00: real time    0.00
    --------------------------------------------
      LOOP:  cpu time    3.26: real time    3.27

 eigenvalue-minimisations  :  3632
 total energy-change (2. order) :-0.7641972E+00  (-0.7634281E+00)
 number of electron      44.0000000 magnetization 
 augmentation part       44.0000000 magnetization 

 Free energy of the ion-electron system (eV)
  ---------------------------------------------------
  alpha Z        PSCENC =        95.91655142
  Ewald energy   TEWEN  =     16486.15309932
  -1/2 Hartree   DENC   =    -21847.22436455
  -exchange  EXHF       =         0.00000000
  -V(xc)+E(xc)   XCENC  =       182.03753322
  PAW double counting   =      4912.82663951    -5336.19386850
  entropy T*S    EENTRO =        -0.01547772
  eigenvalues    EBANDS =       -74.55745598
  atomic energy  EATOM  =      5563.88447798
  ---------------------------------------------------
  free energy    TOTEN  =       -17.17286530 eV

  energy without entropy =      -17.15738758  energy(sigma->0) =      -17.16770606


--------------------------------------------------------------------------------------------------------




----------------------------------------- Iteration    1(   5)  ---------------------------------------


     EDDAV:  cpu time    3.41: real time    3.42
       DOS:  cpu time    0.00: real time    0.00
    CHARGE:  cpu time    0.31: real time    0.32
    MIXING:  cpu time    0.00: real time    0.00
    --------------------------------------------
      LOOP:  cpu time    3.72: real time    3.74

 eigenvalue-minimisations  :  3848
 total energy-change (2. order) :-0.1770933E-01  (-0.1770843E-01)
 number of electron      43.9999840 magnetization 
 augmentation part       26.0389710 magnetization 

 Broyden mixing:
  rms(total) = 0.14791E+01    rms(broyden)= 0.14791E+01
  rms(prec ) = 0.15742E+01
  weight for this iteration     100.00

 Free energy of the ion-electron system (eV)
  ---------------------------------------------------
  alpha Z        PSCENC =        95.91655142
  Ewald energy   TEWEN  =     16486.15309932
  -1/2 Hartree   DENC   =    -21847.22436455
  -exchange  EXHF       =         0.00000000
  -V(xc)+E(xc)   XCENC  =       182.03753322
  PAW double counting   =      4912.82663951    -5336.19386850
  entropy T*S    EENTRO =        -0.01547991
  eigenvalues    EBANDS =       -74.57516312
  atomic energy  EATOM  =      5563.88447798
  ---------------------------------------------------
  free energy    TOTEN  =       -17.19057463 eV

  energy without entropy =      -17.17509472  energy(sigma->0) =      -17.18541466


--------------------------------------------------------------------------------------------------------




----------------------------------------- Iteration    1(   6)  ---------------------------------------


    POTLOK:  cpu time    0.03: real time    0.03
    SETDIJ:  cpu time    0.00: real time    0.00
    EDDIAG:  cpu time    0.70: real time    0.70
  RMM-DIIS:  cpu time    1.97: real time    1.99
    ORTHCH:  cpu time    0.07: real time    0.07
       DOS:  cpu time    0.00: real time    0.00
    CHARGE:  cpu time    0.31: real time    0.32
    MIXING:  cpu time    0.00: real time    0.00
    --------------------------------------------
      LOOP:  cpu time    3.09: real time    3.11

 eigenvalue-minimisations  :  3143
 total energy-change (2. order) : 0.1435116E+01  (-0.3295846E+01)
 number of electron      43.9999816 magnetization 
 augmentation part       29.5012891 magnetization 

 Broyden mixing:
  rms(total) = 0.89829E+00    rms(broyden)= 0.89824E+00
  rms(prec ) = 0.95117E+00
  weight for this iteration     100.00

 eigenvalues of (default mixing * dielectric matrix)
  average eigenvalue GAMMA=   0.6234
  0.6234

 Free energy of the ion-electron system (eV)
  ---------------------------------------------------
  alpha Z        PSCENC =        95.91655142
  Ewald energy   TEWEN  =     16486.15309932
  -1/2 Hartree   DENC   =    -21735.11118137
  -exchange  EXHF       =         0.00000000
  -V(xc)+E(xc)   XCENC  =       176.61344281
  PAW double counting   =      4958.19273318    -5359.54948309
  entropy T*S    EENTRO =         0.00100193
  eigenvalues    EBANDS =      -201.85610108
  atomic energy  EATOM  =      5563.88447798
  ---------------------------------------------------
  free energy    TOTEN  =       -15.75545891 eV

  energy without entropy =      -15.75646084  energy(sigma->0) =      -15.75579289


--------------------------------------------------------------------------------------------------------




----------------------------------------- Iteration    1(   7)  ---------------------------------------


    POTLOK:  cpu time    0.03: real time    0.03
    SETDIJ:  cpu time    0.00: real time    0.00
    EDDIAG:  cpu time    0.70: real time    0.70
  RMM-DIIS:  cpu time    1.98: real time    1.99
    ORTHCH:  cpu time    0.06: real time    0.06
       DOS:  cpu time    0.00: real time    0.00
    CHARGE:  cpu time    0.31: real time    0.31
    MIXING:  cpu time    0.00: real time    0.00
    --------------------------------------------
      LOOP:  cpu time    3.10: real time    3.11

 eigenvalue-minimisations  :  3144
 total energy-change (2. order) : 0.1744969E+01  (-0.6087041E+00)
 number of electron      43.9999827 magnetization 
 augmentation part       28.0500329 magnetization 

 Broyden mixing:
  rms(total) = 0.10230E+00    rms(broyden)= 0.10226E+00
  rms(prec ) = 0.11438E+00
  weight for this iteration     100.00

 eigenvalues of (default mixing * dielectric matrix)
  average eigenvalue GAMMA=   1.0451
  1.4958  0.5944

 Free energy of the ion-electron system (eV)
  ---------------------------------------------------
  alpha Z        PSCENC =        95.91655142
  Ewald energy   TEWEN  =     16486.15309932
  -1/2 Hartree   DENC   =    -21782.97714109
  -exchange  EXHF       =         0.00000000
  -V(xc)+E(xc)   XCENC  =       178.52827583
  PAW double counting   =      5059.69850496    -5480.00286430
  entropy T*S    EENTRO =        -0.00377246
  eigenvalues    EBANDS =      -135.20762113
  atomic energy  EATOM  =      5563.88447798
  ---------------------------------------------------
  free energy    TOTEN  =       -14.01048946 eV

  energy without entropy =      -14.00671700  energy(sigma->0) =      -14.00923198


--------------------------------------------------------------------------------------------------------




----------------------------------------- Iteration    1(   8)  ---------------------------------------


    POTLOK:  cpu time    0.03: real time    0.03
    SETDIJ:  cpu time    0.00: real time    0.00
    EDDIAG:  cpu time    0.70: real time    0.71
  RMM-DIIS:  cpu time    1.99: real time    2.00
    ORTHCH:  cpu time    0.07: real time    0.07
       DOS:  cpu time    0.00: real time    0.00
    CHARGE:  cpu time    0.31: real time    0.31
    MIXING:  cpu time    0.00: real time    0.00
    --------------------------------------------
      LOOP:  cpu time    3.11: real time    3.13

 eigenvalue-minimisations  :  3159
 total energy-change (2. order) : 0.2739735E-01  (-0.9949462E-02)
 number of electron      43.9999826 magnetization 
 augmentation part       28.0356504 magnetization 

 Broyden mixing:
  rms(total) = 0.67466E-01    rms(broyden)= 0.67460E-01
  rms(prec ) = 0.76537E-01
  weight for this iteration     100.00

 eigenvalues of (default mixing * dielectric matrix)
  average eigenvalue GAMMA=   1.0618
  1.9245  0.6304  0.6304

 Free energy of the ion-electron system (eV)
  ---------------------------------------------------
  alpha Z        PSCENC =        95.91655142
  Ewald energy   TEWEN  =     16486.15309932
  -1/2 Hartree   DENC   =    -21784.44050415
  -exchange  EXHF       =         0.00000000
  -V(xc)+E(xc)   XCENC  =       178.24810051
  PAW double counting   =      5152.17434986    -5579.53984697
  entropy T*S    EENTRO =        -0.00427151
  eigenvalues    EBANDS =      -126.37504859
  atomic energy  EATOM  =      5563.88447798
  ---------------------------------------------------
  free energy    TOTEN  =       -13.98309211 eV

  energy without entropy =      -13.97882060  energy(sigma->0) =      -13.98166828


--------------------------------------------------------------------------------------------------------




----------------------------------------- Iteration    1(   9)  ---------------------------------------


    POTLOK:  cpu time    0.03: real time    0.03
    SETDIJ:  cpu time    0.00: real time    0.00
    EDDIAG:  cpu time    0.70: real time    0.70
  RMM-DIIS:  cpu time    2.10: real time    2.11
    ORTHCH:  cpu time    0.06: real time    0.07
       DOS:  cpu time    0.00: real time    0.00
    CHARGE:  cpu time    0.31: real time    0.31
    MIXING:  cpu time    0.00: real time    0.00
    --------------------------------------------
      LOOP:  cpu time    3.21: real time    3.23

 eigenvalue-minimisations  :  3190
 total energy-change (2. order) : 0.5260277E-02  (-0.1697941E-02)
 number of electron      43.9999827 magnetization 
 augmentation part       28.0605312 magnetization 

 Broyden mixing:
  rms(total) = 0.47423E-01    rms(broyden)= 0.47422E-01
  rms(prec ) = 0.55104E-01
  weight for this iteration     100.00

 eigenvalues of (default mixing * dielectric matrix)
  average eigenvalue GAMMA=   1.0254
  2.1550  1.0009  0.6138  0.3321

 Free energy of the ion-electron system (eV)
  ---------------------------------------------------
  alpha Z        PSCENC =        95.91655142
  Ewald energy   TEWEN  =     16486.15309932
  -1/2 Hartree   DENC   =    -21782.53126130
  -exchange  EXHF       =         0.00000000
  -V(xc)+E(xc)   XCENC  =       178.13156498
  PAW double counting   =      5177.67984041    -5606.56291748
  entropy T*S    EENTRO =        -0.00534116
  eigenvalues    EBANDS =      -126.64384602
  atomic energy  EATOM  =      5563.88447798
  ---------------------------------------------------
  free energy    TOTEN  =       -13.97783184 eV

  energy without entropy =      -13.97249068  energy(sigma->0) =      -13.97605145


--------------------------------------------------------------------------------------------------------




----------------------------------------- Iteration    1(  10)  ---------------------------------------


    POTLOK:  cpu time    0.03: real time    0.03
    SETDIJ:  cpu time    0.00: real time    0.00
    EDDIAG:  cpu time    0.70: real time    0.70
  RMM-DIIS:  cpu time    1.97: real time    1.98
    ORTHCH:  cpu time    0.07: real time    0.07
       DOS:  cpu time    0.00: real time    0.00
    CHARGE:  cpu time    0.31: real time    0.31
    MIXING:  cpu time    0.00: real time    0.00
    --------------------------------------------
      LOOP:  cpu time    3.08: real time    3.10

 eigenvalue-minimisations  :  3140
 total energy-change (2. order) : 0.4397472E-02  (-0.5890961E-03)
 number of electron      43.9999826 magnetization 
 augmentation part       28.0934094 magnetization 

 Broyden mixing:
  rms(total) = 0.14300E-01    rms(broyden)= 0.14299E-01
  rms(prec ) = 0.18525E-01
  weight for this iteration     100.00

 eigenvalues of (default mixing * dielectric matrix)
  average eigenvalue GAMMA=   1.1117
  2.4567  1.4421  0.6237  0.7055  0.3305

 Free energy of the ion-electron system (eV)
  ---------------------------------------------------
  alpha Z        PSCENC =        95.91655142
  Ewald energy   TEWEN  =     16486.15309932
  -1/2 Hartree   DENC   =    -21781.31539156
  -exchange  EXHF       =         0.00000000
  -V(xc)+E(xc)   XCENC  =       178.03841634
  PAW double counting   =      5194.06467955    -5623.74359955
  entropy T*S    EENTRO =        -0.00479676
  eigenvalues    EBANDS =      -126.96687111
  atomic energy  EATOM  =      5563.88447798
  ---------------------------------------------------
  free energy    TOTEN  =       -13.97343437 eV

  energy without entropy =      -13.96863761  energy(sigma->0) =      -13.97183545


--------------------------------------------------------------------------------------------------------




----------------------------------------- Iteration    1(  11)  ---------------------------------------


    POTLOK:  cpu time    0.03: real time    0.03
    SETDIJ:  cpu time    0.00: real time    0.00
    EDDIAG:  cpu time    0.70: real time    0.70
  RMM-DIIS:  cpu time    2.00: real time    2.01
    ORTHCH:  cpu time    0.06: real time    0.07
       DOS:  cpu time    0.00: real time    0.00
    CHARGE:  cpu time    0.31: real time    0.31
    MIXING:  cpu time    0.00: real time    0.00
    --------------------------------------------
      LOOP:  cpu time    3.12: real time    3.13

 eigenvalue-minimisations  :  3153
 total energy-change (2. order) : 0.6180317E-03  (-0.2152641E-03)
 number of electron      43.9999826 magnetization 
 augmentation part       28.1025191 magnetization 

 Broyden mixing:
  rms(total) = 0.14373E-01    rms(broyden)= 0.14373E-01
  rms(prec ) = 0.17000E-01
  weight for this iteration     100.00

 eigenvalues of (default mixing * dielectric matrix)
  average eigenvalue GAMMA=   1.0374
  2.3309  1.5045  1.1112  0.6108  0.3561  0.3111

 Free energy of the ion-electron system (eV)
  ---------------------------------------------------
  alpha Z        PSCENC =        95.91655142
  Ewald energy   TEWEN  =     16486.15309932
  -1/2 Hartree   DENC   =    -21781.68859697
  -exchange  EXHF       =         0.00000000
  -V(xc)+E(xc)   XCENC  =       177.99639361
  PAW double counting   =      5204.73980410    -5635.00301569
  entropy T*S    EENTRO =        -0.00437803
  eigenvalues    EBANDS =      -125.96715207
  atomic energy  EATOM  =      5563.88447798
  ---------------------------------------------------
  free energy    TOTEN  =       -13.97281633 eV

  energy without entropy =      -13.96843831  energy(sigma->0) =      -13.97135699


--------------------------------------------------------------------------------------------------------




----------------------------------------- Iteration    1(  12)  ---------------------------------------


    POTLOK:  cpu time    0.03: real time    0.03
    SETDIJ:  cpu time    0.00: real time    0.00
    EDDIAG:  cpu time    0.70: real time    0.71
  RMM-DIIS:  cpu time    1.99: real time    2.00
    ORTHCH:  cpu time    0.07: real time    0.07
       DOS:  cpu time    0.00: real time    0.00
    CHARGE:  cpu time    0.32: real time    0.32
    MIXING:  cpu time    0.00: real time    0.00
    --------------------------------------------
      LOOP:  cpu time    3.11: real time    3.13

 eigenvalue-minimisations  :  3151
 total energy-change (2. order) : 0.4950498E-03  (-0.8484657E-04)
 number of electron      43.9999826 magnetization 
 augmentation part       28.0951621 magnetization 

 Broyden mixing:
  rms(total) = 0.38212E-02    rms(broyden)= 0.38207E-02
  rms(prec ) = 0.56862E-02
  weight for this iteration     100.00

 eigenvalues of (default mixing * dielectric matrix)
  average eigenvalue GAMMA=   1.1231
  2.5388  1.9441  1.0367  1.0367  0.6131  0.3809  0.3117

 Free energy of the ion-electron system (eV)
  ---------------------------------------------------
  alpha Z        PSCENC =        95.91655142
  Ewald energy   TEWEN  =     16486.15309932
  -1/2 Hartree   DENC   =    -21782.58607870
  -exchange  EXHF       =         0.00000000
  -V(xc)+E(xc)   XCENC  =       178.00224126
  PAW double counting   =      5206.75637672    -5637.19578678
  entropy T*S    EENTRO =        -0.00460278
  eigenvalues    EBANDS =      -124.89859974
  atomic energy  EATOM  =      5563.88447798
  ---------------------------------------------------
  free energy    TOTEN  =       -13.97232128 eV

  energy without entropy =      -13.96771850  energy(sigma->0) =      -13.97078702


--------------------------------------------------------------------------------------------------------




----------------------------------------- Iteration    1(  13)  ---------------------------------------


    POTLOK:  cpu time    0.03: real time    0.03
    SETDIJ:  cpu time    0.00: real time    0.00
    EDDIAG:  cpu time    0.70: real time    0.70
  RMM-DIIS:  cpu time    1.97: real time    1.98
    ORTHCH:  cpu time    0.06: real time    0.07
       DOS:  cpu time    0.00: real time    0.00
    CHARGE:  cpu time    0.31: real time    0.32
    MIXING:  cpu time    0.00: real time    0.00
    --------------------------------------------
      LOOP:  cpu time    3.09: real time    3.10

 eigenvalue-minimisations  :  3135
 total energy-change (2. order) : 0.1935533E-03  (-0.2050940E-04)
 number of electron      43.9999826 magnetization 
 augmentation part       28.0998328 magnetization 

 Broyden mixing:
  rms(total) = 0.30433E-02    rms(broyden)= 0.30432E-02
  rms(prec ) = 0.41114E-02
  weight for this iteration     100.00

 eigenvalues of (default mixing * dielectric matrix)
  average eigenvalue GAMMA=   1.1354
  2.3804  2.3804  1.1728  0.9213  0.9213  0.6130  0.3818  0.3124

 Free energy of the ion-electron system (eV)
  ---------------------------------------------------
  alpha Z        PSCENC =        95.91655142
  Ewald energy   TEWEN  =     16486.15309932
  -1/2 Hartree   DENC   =    -21783.94057394
  -exchange  EXHF       =         0.00000000
  -V(xc)+E(xc)   XCENC  =       177.99753978
  PAW double counting   =      5207.10543991    -5637.52357821
  entropy T*S    EENTRO =        -0.00452072
  eigenvalues    EBANDS =      -123.56056327
  atomic energy  EATOM  =      5563.88447798
  ---------------------------------------------------
  free energy    TOTEN  =       -13.97212773 eV

  energy without entropy =      -13.96760701  energy(sigma->0) =      -13.97062082


--------------------------------------------------------------------------------------------------------




----------------------------------------- Iteration    1(  14)  ---------------------------------------


    POTLOK:  cpu time    0.03: real time    0.03
    SETDIJ:  cpu time    0.00: real time    0.00
    EDDIAG:  cpu time    0.70: real time    0.70
  RMM-DIIS:  cpu time    1.86: real time    1.87
    ORTHCH:  cpu time    0.06: real time    0.07
       DOS:  cpu time    0.00: real time    0.00
    CHARGE:  cpu time    0.31: real time    0.32
    MIXING:  cpu time    0.00: real time    0.00
    --------------------------------------------
      LOOP:  cpu time    2.98: real time    2.99

 eigenvalue-minimisations  :  2888
 total energy-change (2. order) : 0.1737680E-04  (-0.6372664E-05)
 number of electron      43.9999826 magnetization 
 augmentation part       28.0976842 magnetization 

 Broyden mixing:
  rms(total) = 0.20351E-02    rms(broyden)= 0.20350E-02
  rms(prec ) = 0.27497E-02
  weight for this iteration     100.00

 eigenvalues of (default mixing * dielectric matrix)
  average eigenvalue GAMMA=   1.1762
  2.6132  2.6132  1.2843  1.2843  1.0501  0.6127  0.3128  0.3820  0.4333

 Free energy of the ion-electron system (eV)
  ---------------------------------------------------
  alpha Z        PSCENC =        95.91655142
  Ewald energy   TEWEN  =     16486.15309932
  -1/2 Hartree   DENC   =    -21784.91656781
  -exchange  EXHF       =         0.00000000
  -V(xc)+E(xc)   XCENC  =       178.00622542
  PAW double counting   =      5205.58367514    -5635.93106779
  entropy T*S    EENTRO =        -0.00456939
  eigenvalues    EBANDS =      -122.66393465
  atomic energy  EATOM  =      5563.88447798
  ---------------------------------------------------
  free energy    TOTEN  =       -13.97211035 eV

  energy without entropy =      -13.96754097  energy(sigma->0) =      -13.97058723


--------------------------------------------------------------------------------------------------------




----------------------------------------- Iteration    1(  15)  ---------------------------------------


    POTLOK:  cpu time    0.03: real time    0.03
    SETDIJ:  cpu time    0.00: real time    0.00
    EDDIAG:  cpu time    0.70: real time    0.70
  RMM-DIIS:  cpu time    1.52: real time    1.53
    ORTHCH:  cpu time    0.06: real time    0.07
       DOS:  cpu time    0.00: real time    0.00
    CHARGE:  cpu time    0.31: real time    0.31
    MIXING:  cpu time    0.00: real time    0.00
    --------------------------------------------
      LOOP:  cpu time    2.63: real time    2.64

 eigenvalue-minimisations  :  2130
 total energy-change (2. order) :-0.3570357E-04  (-0.2574160E-05)
 number of electron      43.9999826 magnetization 
 augmentation part       28.0962831 magnetization 

 Broyden mixing:
  rms(total) = 0.10361E-02    rms(broyden)= 0.10360E-02
  rms(prec ) = 0.15288E-02
  weight for this iteration     100.00

 eigenvalues of (default mixing * dielectric matrix)
  average eigenvalue GAMMA=   1.3580
  3.4759  3.0033  2.0855  1.2017  1.2017  0.9123  0.6136  0.3125  0.3796  0.3942

 Free energy of the ion-electron system (eV)
  ---------------------------------------------------
  alpha Z        PSCENC =        95.91655142
  Ewald energy   TEWEN  =     16486.15309932
  -1/2 Hartree   DENC   =    -21785.60120979
  -exchange  EXHF       =         0.00000000
  -V(xc)+E(xc)   XCENC  =       178.01130790
  PAW double counting   =      5204.60825957    -5634.91673237
  entropy T*S    EENTRO =        -0.00457813
  eigenvalues    EBANDS =      -122.02332196
  atomic energy  EATOM  =      5563.88447798
  ---------------------------------------------------
  free energy    TOTEN  =       -13.97214606 eV

  energy without entropy =      -13.96756793  energy(sigma->0) =      -13.97062002


--------------------------------------------------------------------------------------------------------




----------------------------------------- Iteration    1(  16)  ---------------------------------------


    POTLOK:  cpu time    0.03: real time    0.03
    SETDIJ:  cpu time    0.00: real time    0.00
    EDDIAG:  cpu time    0.70: real time    0.70
  RMM-DIIS:  cpu time    1.52: real time    1.53
    ORTHCH:  cpu time    0.07: real time    0.07
       DOS:  cpu time    0.00: real time    0.00
    CHARGE:  cpu time    0.31: real time    0.31
    MIXING:  cpu time    0.00: real time    0.00
    --------------------------------------------
      LOOP:  cpu time    2.63: real time    2.65

 eigenvalue-minimisations  :  2081
 total energy-change (2. order) :-0.1128842E-03  (-0.1576594E-05)
 number of electron      43.9999826 magnetization 
 augmentation part       28.0961264 magnetization 

 Broyden mixing:
  rms(total) = 0.69042E-03    rms(broyden)= 0.69036E-03
  rms(prec ) = 0.95444E-03
  weight for this iteration     100.00

 eigenvalues of (default mixing * dielectric matrix)
  average eigenvalue GAMMA=   1.4241
  4.7594  2.7329  2.2401  1.2569  1.2569  0.8917  0.8391  0.6134  0.3124  0.3838
  0.3790

 Free energy of the ion-electron system (eV)
  ---------------------------------------------------
  alpha Z        PSCENC =        95.91655142
  Ewald energy   TEWEN  =     16486.15309932
  -1/2 Hartree   DENC   =    -21786.24675748
  -exchange  EXHF       =         0.00000000
  -V(xc)+E(xc)   XCENC  =       178.01306870
  PAW double counting   =      5203.95994055    -5634.25770377
  entropy T*S    EENTRO =        -0.00457096
  eigenvalues    EBANDS =      -121.39036470
  atomic energy  EATOM  =      5563.88447798
  ---------------------------------------------------
  free energy    TOTEN  =       -13.97225894 eV

  energy without entropy =      -13.96768799  energy(sigma->0) =      -13.97073529


--------------------------------------------------------------------------------------------------------




----------------------------------------- Iteration    1(  17)  ---------------------------------------


    POTLOK:  cpu time    0.03: real time    0.03
    SETDIJ:  cpu time    0.00: real time    0.00
    EDDIAG:  cpu time    0.70: real time    0.70
  RMM-DIIS:  cpu time    1.46: real time    1.47
    ORTHCH:  cpu time    0.06: real time    0.07
       DOS:  cpu time    0.00: real time    0.00
    CHARGE:  cpu time    0.31: real time    0.31
    MIXING:  cpu time    0.00: real time    0.00
    --------------------------------------------
      LOOP:  cpu time    2.57: real time    2.59

 eigenvalue-minimisations  :  2014
 total energy-change (2. order) :-0.4393924E-04  (-0.6693413E-06)
 number of electron      43.9999826 magnetization 
 augmentation part       28.0963964 magnetization 

 Broyden mixing:
  rms(total) = 0.31476E-03    rms(broyden)= 0.31475E-03
  rms(prec ) = 0.51217E-03
  weight for this iteration     100.00

 eigenvalues of (default mixing * dielectric matrix)
  average eigenvalue GAMMA=   1.4594
  4.6039  2.9554  2.2514  1.9665  1.1882  1.1882  0.9706  0.6135  0.7017  0.3124
  0.3816  0.3794

 Free energy of the ion-electron system (eV)
  ---------------------------------------------------
  alpha Z        PSCENC =        95.91655142
  Ewald energy   TEWEN  =     16486.15309932
  -1/2 Hartree   DENC   =    -21786.47831072
  -exchange  EXHF       =         0.00000000
  -V(xc)+E(xc)   XCENC  =       178.01240316
  PAW double counting   =      5203.96997607    -5634.27756574
  entropy T*S    EENTRO =        -0.00456056
  eigenvalues    EBANDS =      -121.14837382
  atomic energy  EATOM  =      5563.88447798
  ---------------------------------------------------
  free energy    TOTEN  =       -13.97230288 eV

  energy without entropy =      -13.96774232  energy(sigma->0) =      -13.97078269


--------------------------------------------------------------------------------------------------------




----------------------------------------- Iteration    1(  18)  ---------------------------------------


    POTLOK:  cpu time    0.03: real time    0.03
    SETDIJ:  cpu time    0.00: real time    0.00
    EDDIAG:  cpu time    0.70: real time    0.70
  RMM-DIIS:  cpu time    1.47: real time    1.48
    ORTHCH:  cpu time    0.07: real time    0.07
       DOS:  cpu time    0.00: real time    0.00
    CHARGE:  cpu time    0.31: real time    0.31
    MIXING:  cpu time    0.00: real time    0.00
    --------------------------------------------
      LOOP:  cpu time    2.59: real time    2.60

 eigenvalue-minimisations  :  1985
 total energy-change (2. order) :-0.3016961E-04  (-0.3695418E-06)
 number of electron      43.9999826 magnetization 
 augmentation part       28.0965584 magnetization 

 Broyden mixing:
  rms(total) = 0.26157E-03    rms(broyden)= 0.26155E-03
  rms(prec ) = 0.37519E-03
  weight for this iteration     100.00

 eigenvalues of (default mixing * dielectric matrix)
  average eigenvalue GAMMA=   1.5560
  5.0150  3.8556  2.2964  2.2964  1.3476  1.1617  0.9696  0.9696  0.6134  0.6306
  0.3124  0.3816  0.3785

 Free energy of the ion-electron system (eV)
  ---------------------------------------------------
  alpha Z        PSCENC =        95.91655142
  Ewald energy   TEWEN  =     16486.15309932
  -1/2 Hartree   DENC   =    -21786.57981103
  -exchange  EXHF       =         0.00000000
  -V(xc)+E(xc)   XCENC  =       178.01167092
  PAW double counting   =      5204.15396509    -5634.47260320
  entropy T*S    EENTRO =        -0.00455908
  eigenvalues    EBANDS =      -121.03512448
  atomic energy  EATOM  =      5563.88447798
  ---------------------------------------------------
  free energy    TOTEN  =       -13.97233305 eV

  energy without entropy =      -13.96777397  energy(sigma->0) =      -13.97081336


--------------------------------------------------------------------------------------------------------




----------------------------------------- Iteration    1(  19)  ---------------------------------------


    POTLOK:  cpu time    0.03: real time    0.03
    SETDIJ:  cpu time    0.00: real time    0.00
    EDDIAG:  cpu time    0.70: real time    0.70
  RMM-DIIS:  cpu time    1.46: real time    1.47
    ORTHCH:  cpu time    0.06: real time    0.07
       DOS:  cpu time    0.00: real time    0.00
    CHARGE:  cpu time    0.32: real time    0.32
    MIXING:  cpu time    0.00: real time    0.00
    --------------------------------------------
      LOOP:  cpu time    2.58: real time    2.59

 eigenvalue-minimisations  :  1982
 total energy-change (2. order) :-0.1696706E-04  (-0.2503674E-06)
 number of electron      43.9999826 magnetization 
 augmentation part       28.0967139 magnetization 

 Broyden mixing:
  rms(total) = 0.20564E-03    rms(broyden)= 0.20564E-03
  rms(prec ) = 0.26657E-03
  weight for this iteration     100.00

 eigenvalues of (default mixing * dielectric matrix)
  average eigenvalue GAMMA=   1.5831
  5.1846  4.1086  2.4677  2.4220  1.2990  1.2990  1.0606  1.0606  0.9612  0.6132
  0.6147  0.3124  0.3816  0.3783

 Free energy of the ion-electron system (eV)
  ---------------------------------------------------
  alpha Z        PSCENC =        95.91655142
  Ewald energy   TEWEN  =     16486.15309932
  -1/2 Hartree   DENC   =    -21786.66940302
  -exchange  EXHF       =         0.00000000
  -V(xc)+E(xc)   XCENC  =       178.01130793
  PAW double counting   =      5204.19464058    -5634.51388556
  entropy T*S    EENTRO =        -0.00455873
  eigenvalues    EBANDS =      -120.94457994
  atomic energy  EATOM  =      5563.88447798
  ---------------------------------------------------
  free energy    TOTEN  =       -13.97235002 eV

  energy without entropy =      -13.96779129  energy(sigma->0) =      -13.97083044


--------------------------------------------------------------------------------------------------------




----------------------------------------- Iteration    1(  20)  ---------------------------------------


    POTLOK:  cpu time    0.08: real time    0.08
    SETDIJ:  cpu time    0.00: real time    0.00
    EDDIAG:  cpu time    0.70: real time    0.70
  RMM-DIIS:  cpu time    1.37: real time    1.38
    ORTHCH:  cpu time    0.06: real time    0.06
       DOS:  cpu time    0.00: real time    0.00
    CHARGE:  cpu time    0.31: real time    0.31
    MIXING:  cpu time    0.00: real time    0.00
    --------------------------------------------
      LOOP:  cpu time    2.54: real time    2.59

 eigenvalue-minimisations  :  1915
 total energy-change (2. order) :-0.1058438E-04  (-0.8156182E-07)
 number of electron      43.9999826 magnetization 
 augmentation part       28.0966262 magnetization 

 Broyden mixing:
  rms(total) = 0.12764E-03    rms(broyden)= 0.12764E-03
  rms(prec ) = 0.16542E-03
  weight for this iteration     100.00

 eigenvalues of (default mixing * dielectric matrix)
  average eigenvalue GAMMA=   1.6988
  5.3042  5.3042  2.7903  2.3130  2.0455  1.4894  1.0807  1.0807  0.9595  0.8334
  0.6135  0.5951  0.3124  0.3783  0.3816

 Free energy of the ion-electron system (eV)
  ---------------------------------------------------
  alpha Z        PSCENC =        95.91655142
  Ewald energy   TEWEN  =     16486.15309932
  -1/2 Hartree   DENC   =    -21786.73675761
  -exchange  EXHF       =         0.00000000
  -V(xc)+E(xc)   XCENC  =       178.01144031
  PAW double counting   =      5204.20653066    -5634.52577094
  entropy T*S    EENTRO =        -0.00456131
  eigenvalues    EBANDS =      -120.87737044
  atomic energy  EATOM  =      5563.88447798
  ---------------------------------------------------
  free energy    TOTEN  =       -13.97236060 eV

  energy without entropy =      -13.96779930  energy(sigma->0) =      -13.97084017


--------------------------------------------------------------------------------------------------------




----------------------------------------- Iteration    1(  21)  ---------------------------------------


    POTLOK:  cpu time    0.03: real time    0.03
    SETDIJ:  cpu time    0.00: real time    0.00
    EDDIAG:  cpu time    0.70: real time    0.70
  RMM-DIIS:  cpu time    1.39: real time    1.39
    ORTHCH:  cpu time    0.06: real time    0.06
       DOS:  cpu time    0.00: real time    0.00
    CHARGE:  cpu time    0.31: real time    0.32
    MIXING:  cpu time    0.00: real time    0.00
    --------------------------------------------
      LOOP:  cpu time    2.50: real time    2.52

 eigenvalue-minimisations  :  1860
 total energy-change (2. order) :-0.1374604E-04  (-0.4582708E-07)
 number of electron      43.9999826 magnetization 
 augmentation part       28.0966250 magnetization 

 Broyden mixing:
  rms(total) = 0.77112E-04    rms(broyden)= 0.77108E-04
  rms(prec ) = 0.88613E-04
  weight for this iteration     100.00

 eigenvalues of (default mixing * dielectric matrix)
  average eigenvalue GAMMA=   1.7649
  5.7691  5.7691  2.7423  2.7423  2.1704  1.4269  1.4269  1.0767  1.0767  0.9266
  0.8297  0.6135  0.5956  0.3124  0.3783  0.3816

 Free energy of the ion-electron system (eV)
  ---------------------------------------------------
  alpha Z        PSCENC =        95.91655142
  Ewald energy   TEWEN  =     16486.15309932
  -1/2 Hartree   DENC   =    -21786.80324440
  -exchange  EXHF       =         0.00000000
  -V(xc)+E(xc)   XCENC  =       178.01162372
  PAW double counting   =      5204.15126516    -5634.46777963
  entropy T*S    EENTRO =        -0.00455898
  eigenvalues    EBANDS =      -120.81380894
  atomic energy  EATOM  =      5563.88447798
  ---------------------------------------------------
  free energy    TOTEN  =       -13.97237435 eV

  energy without entropy =      -13.96781537  energy(sigma->0) =      -13.97085469


--------------------------------------------------------------------------------------------------------




----------------------------------------- Iteration    1(  22)  ---------------------------------------


    POTLOK:  cpu time    0.03: real time    0.03
    SETDIJ:  cpu time    0.00: real time    0.00
    EDDIAG:  cpu time    0.70: real time    0.70
  RMM-DIIS:  cpu time    1.19: real time    1.20
    ORTHCH:  cpu time    0.06: real time    0.06
       DOS:  cpu time    0.00: real time    0.00
    --------------------------------------------
      LOOP:  cpu time    1.99: real time    2.00

 eigenvalue-minimisations  :  1229
 total energy-change (2. order) :-0.5973518E-05  (-0.1065041E-07)
 number of electron      43.9999826 magnetization 
 augmentation part       28.0966250 magnetization 

 Free energy of the ion-electron system (eV)
  ---------------------------------------------------
  alpha Z        PSCENC =        95.91655142
  Ewald energy   TEWEN  =     16486.15309932
  -1/2 Hartree   DENC   =    -21786.81461311
  -exchange  EXHF       =         0.00000000
  -V(xc)+E(xc)   XCENC  =       178.01182241
  PAW double counting   =      5204.09532926    -5634.41025789
  entropy T*S    EENTRO =        -0.00455927
  eigenvalues    EBANDS =      -120.80423044
  atomic energy  EATOM  =      5563.88447798
  ---------------------------------------------------
  free energy    TOTEN  =       -13.97238032 eV

  energy without entropy =      -13.96782105  energy(sigma->0) =      -13.97086057


--------------------------------------------------------------------------------------------------------




 average (electrostatic) potential at core
  the test charge radii are     0.9430
  (the norm of the test charge is              1.0000)
       1 -70.8607       2 -71.2105       3 -70.8880       4 -71.2293
 
 
 
 E-fermi :   0.0277     XC(G=0):  -5.8320     alpha+bet : -5.1984


 k-point   1 :       0.0000    0.0000    0.0000
  band No.  band energies     occupation 
      1      -8.7582      2.00000
      2      -7.4363      2.00000
      3      -5.7732      2.00000
      4      -4.9784      2.00000
      5      -3.0040      2.00000
      6      -2.9145      2.00000
      7      -2.9145      2.00000
      8      -2.8871      2.00000
      9      -2.8672      2.00000
     10      -2.8672      2.00000
     11      -2.5914      2.00000
     12      -2.5659      2.00000
     13      -2.5659      2.00000
     14      -2.5015      2.00000
     15      -2.5015      2.00000
     16      -2.0911      2.00000
     17      -2.0911      2.00000
     18      -1.9403      2.00000
     19      -1.9403      2.00000
     20      -1.6097      2.00000
     21      -1.6097      2.00000
     22      -1.5041      2.00000
     23      -1.5041      2.00000
     24      -1.0721      2.00000
     25      -0.0662      1.70592
     26       4.3363      0.00000
     27       4.4677      0.00000
     28       5.7570      0.00000
     29       6.1148      0.00000
     30       7.9062      0.00000
     31       7.4072      0.00000
     32       8.7159      0.00000

 k-point   2 :       0.0769    0.0000    0.0000
  band No.  band energies     occupation 
      1      -8.5716      2.00000
      2      -7.2576      2.00000
      3      -5.6097      2.00000
      4      -4.8496      2.00000
      5      -3.0637      2.00000
      6      -3.0234      2.00000
      7      -2.9626      2.00000
      8      -2.8512      2.00000
      9      -2.8174      2.00000
     10      -2.7888      2.00000
     11      -2.6867      2.00000
     12      -2.6065      2.00000
     13      -2.5196      2.00000
     14      -2.4915      2.00000
     15      -2.4448      2.00000
     16      -2.1202      2.00000
     17      -2.1098      2.00000
     18      -1.9344      2.00000
     19      -1.8988      2.00000
     20      -1.8023      2.00000
     21      -1.6827      2.00000
     22      -1.6132      2.00000
     23      -1.5029      2.00000
     24      -0.7127      2.00000
     25       0.3841     -0.03026
     26       4.4844      0.00000
     27       4.6482      0.00000
     28       5.9342      0.00000
     29       6.2639      0.00000
     30       7.4419      0.00000
     31       7.1516      0.00000
     32       9.0013      0.00000

 k-point   3 :       0.1538    0.0000    0.0000
  band No.  band energies     occupation 
      1      -8.0240      2.00000
      2      -6.7410      2.00000
      3      -5.1574      2.00000
      4      -4.5049      2.00000
      5      -3.2777      2.00000
      6      -3.1726      2.00000
      7      -3.1027      2.00000
      8      -2.8100      2.00000
      9      -2.7363      2.00000
     10      -2.7064      2.00000
     11      -2.7039      2.00000
     12      -2.6667      2.00000
     13      -2.5289      2.00000
     14      -2.4194      2.00000
     15      -2.2921      2.00000
     16      -2.2327      2.00000
     17      -2.1069      2.00000
     18      -2.0899      2.00000
     19      -1.9722      2.00000
     20      -1.9232      2.00000
     21      -1.6230      2.00000
     22      -1.4999      2.00000
     23      -1.4882      2.00000
     24      -0.0724      1.74041
     25       1.3554      0.00000
     26       4.9298      0.00000
     27       5.1896      0.00000
     28       6.4656      0.00000
     29       6.7231      0.00000
     30       6.8858      0.00000
     31       6.8918      0.00000
     32       9.6089      0.00000

 k-point   4 :       0.2308    0.0000    0.0000
  band No.  band energies     occupation 
      1      -7.1616      2.00000
      2      -5.9678      2.00000
      3      -4.5924      2.00000
      4      -4.1077      2.00000
      5      -3.5276      2.00000
      6      -3.2964      2.00000
      7      -3.2388      2.00000
      8      -2.8902      2.00000
      9      -2.8143      2.00000
     10      -2.7091      2.00000
     11      -2.6441      2.00000
     12      -2.4979      2.00000
     13      -2.4227      2.00000
     14      -2.4206      2.00000
     15      -2.3035      2.00000
     16      -2.1876      2.00000
     17      -2.1033      2.00000
     18      -1.9150      2.00000
     19      -1.9127      2.00000
     20      -1.8522      2.00000
     21      -1.6375      2.00000
     22      -1.4951      2.00000
     23      -1.1169      2.00000
     24       0.7174     -0.00001
     25       2.5955      0.00000
     26       5.6763      0.00000
     27       6.0898      0.00000
     28       7.3455      0.00000
     29       7.5104      0.00000
     30       6.7879      0.00000
     31       7.0074      0.00000
     32       8.5651      0.00000

 k-point   5 :       0.3077    0.0000    0.0000
  band No.  band energies     occupation 
      1      -6.1093      2.00000
      2      -5.1693      2.00000
      3      -4.2961      2.00000
      4      -3.9809      2.00000
      5      -3.6934      2.00000
      6      -3.4037      2.00000
      7      -3.1971      2.00000
      8      -2.9893      2.00000
      9      -2.7542      2.00000
     10      -2.6916      2.00000
     11      -2.5509      2.00000
     12      -2.3882      2.00000
     13      -2.2909      2.00000
     14      -2.2719      2.00000
     15      -2.0759      2.00000
     16      -1.9592      2.00000
     17      -1.9137      2.00000
     18      -1.7623      2.00000
     19      -1.6873      2.00000
     20      -1.6554      2.00000
     21      -1.6147      2.00000
     22      -1.4798      2.00000
     23      -0.5557      2.00030
     24       1.6920      0.00000
     25       4.0393      0.00000
     26       6.6720      0.00000
     27       7.3177      0.00000
     28       8.0611      0.00000
     29       7.5218      0.00000
     30       6.8096      0.00000
     31       6.4106      0.00000
     32       7.7272      0.00000

 k-point   6 :       0.3846    0.0000    0.0000
  band No.  band energies     occupation 
      1      -5.1829      2.00000
      2      -4.7118      2.00000
      3      -4.2449      2.00000
      4      -4.0856      2.00000
      5      -3.8292      2.00000
      6      -3.5555      2.00000
      7      -3.0871      2.00000
      8      -2.8970      2.00000
      9      -2.7861      2.00000
     10      -2.7580      2.00000
     11      -2.4180      2.00000
     12      -2.2900      2.00000
     13      -1.9906      2.00000
     14      -1.8502      2.00000
     15      -1.7175      2.00000
     16      -1.6931      2.00000
     17      -1.6541      2.00000
     18      -1.5398      2.00000
     19      -1.5243      2.00000
     20      -1.3976      2.00000
     21      -1.3666      2.00000
     22      -1.0968      2.00000
     23       0.4022     -0.02360
     24       2.7305      0.00000
     25       5.2032      0.00000
     26       5.7968      0.00000
     27       6.6548      0.00000
     28       8.1480      0.00000
     29       7.6436      0.00000
     30       7.3146      0.00000
     31       7.1024      0.00000
     32       6.8085      0.00000

 k-point   7 :       0.4615    0.0000    0.0000
  band No.  band energies     occupation 
      1      -4.7656      2.00000
      2      -4.5991      2.00000
      3      -4.2042      2.00000
      4      -4.1083      2.00000
      5      -3.9583      2.00000
      6      -3.6506      2.00000
      7      -3.0816      2.00000
      8      -2.9499      2.00000
      9      -2.7986      2.00000
     10      -2.6118      2.00000
     11      -2.3042      2.00000
     12      -2.2846      2.00000
     13      -1.7747      2.00000
     14      -1.7596      2.00000
     15      -1.6052      2.00000
     16      -1.5904      2.00000
     17      -1.5772      2.00000
     18      -1.4929      2.00000
     19      -1.2561      2.00000
     20      -1.2310      2.00000
     21      -0.4649      2.00273
     22       0.3295     -0.05451
     23       1.3497      0.00000
     24       2.1615      0.00000
     25       4.3629      0.00000
     26       5.3584      0.00000
     27       6.0244      0.00000
     28       7.6545      0.00000
     29       8.1746      0.00000
     30       7.5994      0.00000
     31       7.2221      0.00000
     32       6.8751      0.00000

 k-point   8 :       0.0769    0.0769    0.0000
  band No.  band energies     occupation 
      1      -8.2042      2.00000
      2      -6.9093      2.00000
      3      -5.2998      2.00000
      4      -4.6106      2.00000
      5      -3.1907      2.00000
      6      -3.1512      2.00000
      7      -3.0670      2.00000
      8      -2.7930      2.00000
      9      -2.7435      2.00000
     10      -2.7302      2.00000
     11      -2.7150      2.00000
     12      -2.6904      2.00000
     13      -2.5346      2.00000
     14      -2.4252      2.00000
     15      -2.3436      2.00000
     16      -2.1716      2.00000
     17      -2.1121      2.00000
     18      -2.0830      2.00000
     19      -1.9539      2.00000
     20      -1.8352      2.00000
     21      -1.7281      2.00000
     22      -1.5286      2.00000
     23      -1.4949      2.00000
     24      -0.2570      2.06177
     25       1.0650      0.00000
     26       4.7813      0.00000
     27       5.0092      0.00000
     28       6.2886      0.00000
     29       6.5685      0.00000
     30       6.9563      0.00000
     31       6.9304      0.00000
     32       9.4425      0.00000

 k-point   9 :       0.1538    0.0769    0.0000
  band No.  band energies     occupation 
      1      -7.4961      2.00000
      2      -6.2574      2.00000
      3      -4.7711      2.00000
      4      -4.2186      2.00000
      5      -3.4092      2.00000
      6      -3.2906      2.00000
      7      -3.2182      2.00000
      8      -2.8775      2.00000
      9      -2.8215      2.00000
     10      -2.7718      2.00000
     11      -2.6718      2.00000
     12      -2.5510      2.00000
     13      -2.4922      2.00000
     14      -2.3383      2.00000
     15      -2.3002      2.00000
     16      -2.2510      2.00000
     17      -2.1122      2.00000
     18      -2.0018      2.00000
     19      -1.9128      2.00000
     20      -1.8318      2.00000
     21      -1.6774      2.00000
     22      -1.5462      2.00000
     23      -1.2245      2.00000
     24       0.4262     -0.01638
     25       2.1336      0.00000
     26       5.3791      0.00000
     27       5.7305      0.00000
     28       6.9965      0.00000
     29       7.1963      0.00000
     30       6.7012      0.00000
     31       6.8795      0.00000
     32      10.1758      0.00000

[...]
     10      -2.7034      2.00000
     11      -2.5771      2.00000
     12      -2.4368      2.00000
     13      -2.3303      2.00000
     14      -2.1999      2.00000
     15      -1.9445      2.00000
     16      -1.9052      2.00000
     17      -1.7991      2.00000
     18      -1.5984      2.00000
     19      -1.5067      2.00000
     20      -1.4381      2.00000
     21      -0.6352      2.00003
     22      -0.1222      1.95200
     23       1.2311      0.00000
     24       3.4419      0.00000
     25       5.6550      0.00000
     26       6.2928      0.00000
     27       7.1023      0.00000
     28       7.4443      0.00000
     29       6.6951      0.00000
     30       7.0489      0.00000
     31       6.6116      0.00000
     32       7.1268      0.00000

 k-point  42 :      -0.3846    0.3077    0.0000
  band No.  band energies     occupation 
      1      -5.4923      2.00000
      2      -4.7961      2.00000
      3      -4.2093      2.00000
      4      -3.9803      2.00000
      5      -3.6967      2.00000
      6      -3.4669      2.00000
      7      -3.1751      2.00000
      8      -3.0147      2.00000
      9      -2.8113      2.00000
     10      -2.7305      2.00000
     11      -2.5400      2.00000
     12      -2.3493      2.00000
     13      -2.2813      2.00000
     14      -2.1515      2.00000
     15      -1.9686      2.00000
     16      -1.8723      2.00000
     17      -1.7550      2.00000
     18      -1.6540      2.00000
     19      -1.6292      2.00000
     20      -1.4974      2.00000
     21      -1.3430      2.00000
     22      -1.1647      2.00000
     23       0.0668      0.67572
     24       2.3984      0.00000
     25       4.9495      0.00000
     26       6.6965      0.00000
     27       7.4532      0.00000
     28       8.1084      0.00000
     29       8.2602      0.00000
     30       6.8708      0.00000
     31       6.7024      0.00000
     32       6.6709      0.00000

 k-point  43 :      -0.3077    0.3077    0.0000
  band No.  band energies     occupation 
      1      -6.1093      2.00000
      2      -5.1693      2.00000
      3      -4.2961      2.00000
      4      -3.9809      2.00000
      5      -3.6934      2.00000
      6      -3.4037      2.00000
      7      -3.1971      2.00000
      8      -2.9893      2.00000
      9      -2.7542      2.00000
     10      -2.6916      2.00000
     11      -2.5509      2.00000
     12      -2.3882      2.00000
     13      -2.2909      2.00000
     14      -2.2719      2.00000
     15      -2.0759      2.00000
     16      -1.9592      2.00000
     17      -1.9138      2.00000
     18      -1.7623      2.00000
     19      -1.6873      2.00000
     20      -1.6554      2.00000
     21      -1.6147      2.00000
     22      -1.4798      2.00000
     23      -0.5557      2.00030
     24       1.6920      0.00000
     25       4.0393      0.00000
     26       6.6720      0.00000
     27       7.3182      0.00000
     28       8.0632      0.00000
     29       7.5821      0.00000
     30       6.7978      0.00000
     31       6.4398      0.00000
     32       7.7069      0.00000

 k-point  44 :       0.3846    0.3846    0.0000
  band No.  band energies     occupation 
      1      -4.1205      2.00000
      2      -4.1100      2.00000
      3      -3.8538      2.00000
      4      -3.7367      2.00000
      5      -3.6076      2.00000
      6      -3.4743      2.00000
      7      -3.4090      2.00000
      8      -3.0466      2.00000
      9      -3.0210      2.00000
     10      -2.6583      2.00000
     11      -2.6187      2.00000
     12      -2.3901      2.00000
     13      -2.3378      2.00000
     14      -2.2912      2.00000
     15      -1.9619      2.00000
     16      -1.9068      2.00000
     17      -1.6887      2.00000
     18      -1.6157      2.00000
     19      -1.5603      2.00000
     20      -1.5188      2.00000
     21       2.0097      0.00000
     22       2.4174      0.00000
     23       3.0611      0.00000
     24       3.5869      0.00000
     25       5.0319      0.00000
     26       5.9609      0.00000
     27       6.7371      0.00000
     28       7.0937      0.00000
     29       8.2117      0.00000
     30       8.2927      0.00000
     31       6.2540      0.00000
     32       7.1191      0.00000

 k-point  45 :       0.4615    0.3846    0.0000
  band No.  band energies     occupation 
      1      -4.4492      2.00000
      2      -4.3507      2.00000
      3      -4.0145      2.00000
      4      -3.9165      2.00000
      5      -3.7296      2.00000
      6      -3.5231      2.00000
      7      -3.2727      2.00000
      8      -2.9533      2.00000
      9      -2.8986      2.00000
     10      -2.6995      2.00000
     11      -2.6238      2.00000
     12      -2.2609      2.00000
     13      -2.1497      2.00000
     14      -2.0401      2.00000
     15      -1.8615      2.00000
     16      -1.7681      2.00000
     17      -1.6838      2.00000
     18      -1.5665      2.00000
     19      -1.5149      2.00000
     20      -1.4330      2.00000
     21       0.5524     -0.00131
     22       1.2769      0.00000
     23       2.3432      0.00000
     24       2.9763      0.00000
     25       4.6533      0.00000
     26       5.7748      0.00000
     27       6.4456      0.00000
     28       8.1199      0.00000
     29       6.9882      0.00000
     30       6.2072      0.00000
     31       7.0952      0.00000
     32       7.6630      0.00000

 k-point  46 :      -0.4615    0.3846    0.0000
  band No.  band energies     occupation 
      1      -4.8139      2.00000
      2      -4.5565      2.00000
      3      -4.1565      2.00000
      4      -4.0801      2.00000
      5      -3.8321      2.00000
      6      -3.5849      2.00000
      7      -3.1343      2.00000
      8      -2.8998      2.00000
      9      -2.8380      2.00000
     10      -2.7045      2.00000
     11      -2.4921      2.00000
     12      -2.2360      2.00000
     13      -1.9766      2.00000
     14      -1.8527      2.00000
     15      -1.7734      2.00000
     16      -1.6830      2.00000
     17      -1.6090      2.00000
     18      -1.5756      2.00000
     19      -1.4703      2.00000
     20      -1.3731      2.00000
     21      -0.6755      2.00001
     22      -0.1060      1.89688
     23       1.2429      0.00000
     24       2.9976      0.00000
     25       4.7570      0.00000
     26       5.6103      0.00000
     27       6.5363      0.00000
     28       7.6583      0.00000
     29       6.4808      0.00000
     30       6.4095      0.00000
     31       6.9263      0.00000
     32       7.8180      0.00000

 k-point  47 :      -0.3846    0.3846    0.0000
  band No.  band energies     occupation 
      1      -5.1829      2.00000
      2      -4.7118      2.00000
      3      -4.2449      2.00000
      4      -4.0856      2.00000
      5      -3.8292      2.00000
      6      -3.5555      2.00000
      7      -3.0871      2.00000
      8      -2.8970      2.00000
      9      -2.7861      2.00000
     10      -2.7581      2.00000
     11      -2.4180      2.00000
     12      -2.2900      2.00000
     13      -1.9906      2.00000
     14      -1.8502      2.00000
     15      -1.7175      2.00000
     16      -1.6931      2.00000
     17      -1.6541      2.00000
     18      -1.5398      2.00000
     19      -1.5243      2.00000
     20      -1.3976      2.00000
     21      -1.3666      2.00000
     22      -1.0967      2.00000
     23       0.4022     -0.02359
     24       2.7306      0.00000
     25       5.2031      0.00000
     26       5.7968      0.00000
     27       6.6548      0.00000
     28       8.1499      0.00000
     29       7.6966      0.00000
     30       7.2832      0.00000
     31       6.9744      0.00000
     32       6.9194      0.00000

 k-point  48 :       0.4615    0.4615    0.0000
  band No.  band energies     occupation 
      1      -4.6427      2.00000
      2      -4.5268      2.00000
      3      -4.1576      2.00000
      4      -4.0144      2.00000
      5      -3.9330      2.00000
      6      -3.6316      2.00000
      7      -3.1329      2.00000
      8      -2.9387      2.00000
      9      -2.8070      2.00000
     10      -2.6401      2.00000
     11      -2.4710      2.00000
     12      -2.2050      2.00000
     13      -1.8443      2.00000
     14      -1.7928      2.00000
     15      -1.7186      2.00000
     16      -1.6370      2.00000
     17      -1.5546      2.00000
     18      -1.5238      2.00000
     19      -1.3578      2.00000
     20      -1.3410      2.00000
     21       0.2541     -0.06792
     22       1.0531      0.00000
     23       1.6312      0.00000
     24       1.9320      0.00000
     25       4.3405      0.00000
     26       5.2604      0.00000
     27       6.2524      0.00000
     28       7.4469      0.00000
     29       6.2616      0.00000
     30       6.8938      0.00000
     31       8.2087      0.00000
     32       8.0748      0.00000

 k-point  49 :      -0.4615    0.4615    0.0000
  band No.  band energies     occupation 
      1      -4.7656      2.00000
      2      -4.5991      2.00000
      3      -4.2042      2.00000
      4      -4.1083      2.00000
      5      -3.9583      2.00000
      6      -3.6506      2.00000
      7      -3.0816      2.00000
      8      -2.9499      2.00000
      9      -2.7986      2.00000
     10      -2.6118      2.00000
     11      -2.3042      2.00000
     12      -2.2846      2.00000
     13      -1.7747      2.00000
     14      -1.7596      2.00000
     15      -1.6052      2.00000
     16      -1.5904      2.00000
     17      -1.5772      2.00000
     18      -1.4929      2.00000
     19      -1.2562      2.00000
     20      -1.2310      2.00000
     21      -0.4649      2.00273
     22       0.3295     -0.05449
     23       1.3498      0.00000
     24       2.1615      0.00000
     25       4.3629      0.00000
     26       5.3584      0.00000
     27       6.0244      0.00000
     28       7.6545      0.00000
     29       8.1769      0.00000
     30       7.2206      0.00000
     31       7.0933      0.00000
     32       7.4220      0.00000


--------------------------------------------------------------------------------------------------------


 soft charge-density along one line, spin component           1
         0         1         2         3         4         5         6         7         8         9
 total charge-density along one line
 
 pseudopotential strength for first ion, spin component:           1
 -8.116   0.000   0.000   0.004   0.000  -0.783   0.000   0.000
  0.000  -8.087   0.000   0.000   0.004   0.000  -0.807   0.000
  0.000   0.000  -8.086   0.000   0.000   0.000   0.000  -0.808
  0.004   0.000   0.000  -8.087   0.000  -0.003   0.000   0.000
  0.000   0.004   0.000   0.000  -8.116   0.000  -0.003   0.000
 -0.783   0.000   0.000  -0.003   0.000   7.536   0.000   0.000
  0.000  -0.807   0.000   0.000  -0.003   0.000   7.553   0.000
  0.000   0.000  -0.808   0.000   0.000   0.000   0.000   7.555
 -0.003   0.000   0.000  -0.807   0.000   0.002   0.000   0.000
  0.000  -0.003   0.000   0.000  -0.783   0.000   0.002   0.000
  0.000   0.000  -0.006   0.000   0.000   0.000   0.000   0.002
  0.000   0.000  -0.012   0.000   0.000   0.000   0.000   0.004
  0.000  -0.009   0.000   0.000   0.000   0.000   0.009   0.000
  0.000   0.000  -0.008   0.000   0.000   0.000   0.000   0.008
  0.000   0.000   0.000  -0.009   0.000   0.000   0.000   0.000
  0.000  -0.010   0.000   0.000   0.000   0.000   0.011   0.000
  0.000   0.000  -0.009   0.000   0.000   0.000   0.000   0.009
  0.000   0.000   0.000  -0.010   0.000   0.000   0.000   0.000
 total augmentation occupancy for first ion, spin component:           1
  1.911   0.000   0.000   0.005   0.000  -0.016   0.000   0.000  -0.004   0.000   0.000   0.000   0.000   0.000  -0.006   0.000
  0.000   1.927   0.000   0.000   0.005   0.000  -0.032   0.000   0.000  -0.004   0.000   0.000   0.009   0.000   0.000  -0.009
  0.000   0.000   1.923   0.000   0.000   0.000   0.000  -0.027   0.000   0.000  -0.005   0.014   0.000   0.053   0.000   0.000
  0.005   0.000   0.000   1.927   0.000  -0.004   0.000   0.000  -0.032   0.000   0.000   0.000   0.000   0.000   0.009   0.000
  0.000   0.005   0.000   0.000   1.911   0.000  -0.004   0.000   0.000  -0.016   0.000   0.000  -0.006   0.000   0.000   0.001
 -0.016   0.000   0.000  -0.004   0.000   0.014   0.000   0.000   0.000   0.000   0.000   0.000   0.000   0.000  -0.003   0.000
  0.000  -0.032   0.000   0.000  -0.004   0.000   0.009   0.000   0.000   0.000   0.000   0.000   0.016   0.000   0.000  -0.001
  0.000   0.000  -0.027   0.000   0.000   0.000   0.000   0.012   0.000   0.000  -0.041   0.002   0.000   0.021   0.000   0.000
 -0.004   0.000   0.000  -0.032   0.000   0.000   0.000   0.000   0.009   0.000   0.000   0.000   0.000   0.000   0.016   0.000
  0.000  -0.004   0.000   0.000  -0.016   0.000   0.000   0.000   0.000   0.014   0.000   0.000  -0.003   0.000   0.000   0.000
  0.000   0.000  -0.005   0.000   0.000   0.000   0.000  -0.041   0.000   0.000   1.679  -0.132   0.000   0.128   0.000   0.000
  0.000   0.000   0.014   0.000   0.000   0.000   0.000   0.002   0.000   0.000  -0.132   0.016   0.000  -0.022   0.000   0.000
  0.000   0.009   0.000   0.000  -0.006   0.000   0.016   0.000   0.000  -0.003   0.000   0.000   0.202   0.000   0.000  -0.012
  0.000   0.000   0.053   0.000   0.000   0.000   0.000   0.021   0.000   0.000   0.128  -0.022   0.000   0.120   0.000   0.000
 -0.006   0.000   0.000   0.009   0.000  -0.003   0.000   0.000   0.016   0.000   0.000   0.000   0.000   0.000   0.202   0.000
  0.000  -0.009   0.000   0.000   0.001   0.000  -0.001   0.000   0.000   0.000   0.000   0.000  -0.012   0.000   0.000   0.001
  0.000   0.000  -0.014   0.000   0.000   0.000   0.000  -0.001   0.000   0.000  -0.018   0.002   0.000  -0.008   0.000   0.000
  0.001   0.000   0.000  -0.009   0.000   0.000   0.000   0.000  -0.001   0.000   0.000   0.000   0.000   0.000  -0.012   0.000


------------------------ aborting loop because EDIFF is reached ----------------------------------------


    CHARGE:  cpu time    0.31: real time    0.31
    FORLOC:  cpu time    0.00: real time    0.00
    FORNL :  cpu time    0.41: real time    0.41
    STRESS:  cpu time    1.30: real time    1.30
    FORCOR:  cpu time    0.03: real time    0.03
    FORHAR:  cpu time    0.01: real time    0.01
    MIXING:  cpu time    0.00: real time    0.00

  FORCE on cell =-STRESS in cart. coord.  units (eV):
  Direction    XX          YY          ZZ          XY          YZ          ZX
  --------------------------------------------------------------------------------------
  Alpha Z    95.91655    95.91655    95.91655
  Ewald   19398.04516 19398.04619-22309.93928     0.00089     0.00050    -0.00087
  Hartree 20861.78671 20861.78760-19936.76759     0.00078     0.00028    -0.00048
  E(xc)    -256.75624  -256.75621  -257.28071     0.00003     0.00000     0.00000
  Local  -40748.33660-40748.34136 41756.35048    -0.00412    -0.00077     0.00134
  n-local   -91.72045   -83.18551   -88.80455    -2.46407     0.20469     0.11740
  augment   377.95490   377.95731   379.67691     0.00209    -0.00001     0.00002
  Kinetic   364.66227   350.43536   360.45122     4.10688     0.45494     0.26267
  Fock        0.00000     0.00000     0.00000     0.00000     0.00000     0.00000
  -------------------------------------------------------------------------------------
  Total      -1.29357    -1.29420    -0.39697    -0.00055     0.00000     0.00000
  in kB     -16.98876   -16.99703    -5.21350    -0.00716     0.00001    -0.00001
  external pressure =      -13.07 kB  Pullay stress =        0.00 kB


 VOLUME and BASIS-vectors are now :
 -----------------------------------------------------------------------------
  energy-cutoff  :      450.00
  volume of cell :      121.99
      direct lattice vectors                 reciprocal lattice vectors
     2.571700096  0.000000000  0.000000000     0.388847829  0.224501399  0.000000000
    -1.285850048  2.227157614  0.000000000     0.000000000  0.449002798  0.000000000
     0.000000000  0.000000000 21.299400330     0.000000000  0.000000000  0.046949679

  length of vectors
     2.571700096  2.571700096 21.299400330     0.449002798  0.449002798  0.046949679


 FORCES acting on ions
    electron-ion (+dipol)            ewald-force                    non-local-force                 convergence-correction
 -----------------------------------------------------------------------------------------------
   0.265E-03 -.145E-03 0.347E+04   -.267E-03 0.155E-03 -.347E+04   -.552E-05 0.319E-05 -.207E+01   -.124E-05 0.715E-06 0.220E-02
   -.620E-03 0.357E-03 0.117E+04   0.634E-03 -.367E-03 -.117E+04   -.105E-04 0.606E-05 -.427E+00   0.269E-06 -.155E-06 -.766E-03
   0.312E-03 -.188E-03 -.348E+04   -.319E-03 0.185E-03 0.348E+04   0.785E-05 -.453E-05 0.216E+01   0.265E-05 -.153E-05 -.284E-02
   0.411E-04 -.331E-04 -.116E+04   -.479E-04 0.267E-04 0.116E+04   0.220E-04 -.127E-04 0.340E+00   0.115E-05 -.666E-06 -.962E-03
 -----------------------------------------------------------------------------------------------
   -.190E-05 -.976E-05 0.108E-01   0.255E-13 -.154E-12 0.227E-12   0.138E-04 -.799E-05 -.507E-02   0.284E-05 -.164E-05 -.237E-02
 
 
 POSITION                                       TOTAL-FORCE (eV/Angst)
 -----------------------------------------------------------------------------------
      0.00000      0.00000      0.00000        -0.000018      0.000010      0.099356
     -0.00001      1.48478      2.09991         0.000000      0.000000     -0.111219
     -1.28583      2.22715      6.25927         0.000002     -0.000001      0.004362
      1.28585      0.74238      4.18903         0.000016     -0.000009      0.007501
 -----------------------------------------------------------------------------------
    total drift:                                0.000015     -0.000019      0.003325


--------------------------------------------------------------------------------------------------------



  FREE ENERGIE OF THE ION-ELECTRON SYSTEM (eV)
  ---------------------------------------------------
  free  energy   TOTEN  =       -13.97238032 eV

  energy  without entropy=      -13.96782105  energy(sigma->0) =      -13.97086057
 


--------------------------------------------------------------------------------------------------------


    POTLOK:  cpu time    0.03: real time    0.03


--------------------------------------------------------------------------------------------------------




--------------------------------------------------------------------------------------------------------


  
 reached required accuracy - stopping structural energy minimisation
     LOOP+:  cpu time   66.18: real time   66.56
    4ORBIT:  cpu time    0.00: real time    0.00

 total amount of memory used by VASP on root node    60933. kBytes
========================================================================

   base      :      30000. kBytes
   nonl-proj :      19195. kBytes
   fftplans  :        904. kBytes
   grid      :       2092. kBytes
   one-center:         62. kBytes
   wavefun   :       8680. kBytes
 
  
  
 General timing and accounting informations for this job:
 ========================================================
  
                  Total CPU time used (sec):       67.566
                            User time (sec):       67.364
                          System time (sec):        0.202
                         Elapsed time (sec):       70.290
  
                   Maximum memory used (kb):           0.
                   Average memory used (kb):           0.
  
                          Minor page faults:        74143
                          Major page faults:           16
                 Voluntary context switches:          786
