<?xml version="1.0" encoding="ISO-8859-1"?>
<modeling>
 <generator>
  <i name="program" type="string">vasp </i>
  <i name="version" type="string">5.3.3  </i>
  <i name="subversion" type="string">18Dez12 (build Jan 17 2013 15:17:09) complex                          parallel </i>
  <i name="platform" type="string">LinuxIFC </i>
  <i name="date" type="string">2017 11 27 </i>
  <i name="time" type="string">19:51:07 </i>
 </generator>
 <incar>
  <i type="string" name="SYSTEM"> Cu111</i>
  <i type="string" name="PREC">normal</i>
  <i type="string" name="ALGO"> FAST</i>
  <i type="int" name="IBRION">     2</i>
  <i name="EDIFF">      0.00001000</i>
  <i name="EDIFFG">     -0.01000000</i>
  <i type="int" name="NSW">     1</i>
  <i name="ENCUT">    450.00000000</i>
  <i name="POTIM">      0.10000000</i>
  <i type="int" name="ISMEAR">     1</i>
  <i type="int" name="NWRITE">     0</i>
  <i type="logical" name="LWAVE"> F  </i>
  <i type="logical" name="LCHARG"> F  </i>
  <i type="logical" name="LVHAR"> T  </i>
 </incar>
 <kpoints>
  <generation param="Gamma">
   <v type="int" name="divisions">      13       13        1 </v>
   <v name="usershift">      0.00000000       0.00000000       0.00000000 </v>
   <v name="genvec1">      0.07692308       0.00000000       0.00000000 </v>
   <v name="genvec2">      0.00000000       0.07692308       0.00000000 </v>
   <v name="genvec3">      0.00000000       0.00000000       1.00000000 </v>
   <v name="shift">      0.00000000       0.00000000       0.00000000 </v>
  </generation>
  <varray name="kpointlist" >
   <v>       0.00000000       0.00000000       0.00000000 </v>
   <v>       0.07692308       0.00000000       0.00000000 </v>
   <v>       0.15384615       0.00000000       0.00000000 </v>
   <v>       0.23076923       0.00000000       0.00000000 </v>
   <v>       0.30769231       0.00000000       0.00000000 </v>
   <v>       0.38461538       0.00000000       0.00000000 </v>
   <v>       0.46153846       0.00000000       0.00000000 </v>
   <v>       0.07692308       0.07692308       0.00000000 </v>
   <v>       0.15384615       0.07692308       0.00000000 </v>
   <v>       0.23076923       0.07692308       0.00000000 </v>
   <v>       0.30769231       0.07692308       0.00000000 </v>
   <v>       0.38461538       0.07692308       0.00000000 </v>
   <v>       0.46153846       0.07692308       0.00000000 </v>
   <v>      -0.46153846       0.07692308       0.00000000 </v>
   <v>      -0.38461538       0.07692308       0.00000000 </v>
   <v>      -0.30769231       0.07692308       0.00000000 </v>
   <v>      -0.23076923       0.07692308       0.00000000 </v>
   <v>      -0.15384615       0.07692308       0.00000000 </v>
   <v>      -0.07692308       0.07692308       0.00000000 </v>
   <v>       0.15384615       0.15384615       0.00000000 </v>
   <v>       0.23076923       0.15384615       0.00000000 </v>
   <v>       0.30769231       0.15384615       0.00000000 </v>
   <v>       0.38461538       0.15384615       0.00000000 </v>
   <v>       0.46153846       0.15384615       0.00000000 </v>
   <v>      -0.46153846       0.15384615       0.00000000 </v>
   <v>      -0.38461538       0.15384615       0.00000000 </v>
   <v>      -0.30769231       0.15384615       0.00000000 </v>
   <v>      -0.23076923       0.15384615       0.00000000 </v>
   <v>      -0.15384615       0.15384615       0.00000000 </v>
   <v>       0.23076923       0.23076923       0.00000000 </v>
   <v>       0.30769231       0.23076923       0.00000000 </v>
   <v>       0.38461538       0.23076923       0.00000000 </v>
   <v>       0.46153846       0.23076923       0.00000000 </v>
   <v>      -0.46153846       0.23076923       0.00000000 </v>
   <v>      -0.38461538       0.23076923       0.00000000 </v>
   <v>      -0.30769231       0.23076923       0.00000000 </v>
   <v>      -0.23076923       0.23076923       0.00000000 </v>
   <v>       0.30769231       0.30769231       0.00000000 </v>
   <v>       0.38461538       0.30769231       0.00000000 </v>
   <v>       0.46153846       0.30769231       0.00000000 </v>
   <v>      -0.46153846       0.30769231       0.00000000 </v>
   <v>      -0.38461538       0.30769231       0.00000000 </v>
   <v>      -0.30769231       0.30769231       0.00000000 </v>
   <v>       0.38461538       0.38461538       0.00000000 </v>
   <v>       0.46153846       0.38461538       0.00000000 </v>
   <v>      -0.46153846       0.38461538       0.00000000 </v>
   <v>      -0.38461538       0.38461538       0.00000000 </v>
   <v>       0.46153846       0.46153846       0.00000000 </v>
   <v>      -0.46153846       0.46153846       0.00000000 </v>
  </varray>
  <varray name="weights" >
   <v>       0.00591716 </v>
   <v>       0.02366864 </v>
   <v>       0.02366864 </v>
   <v>       0.02366864 </v>
   <v>       0.02366864 </v>
   <v>       0.02366864 </v>
   <v>       0.02366864 </v>
   <v>       0.01183432 </v>
   <v>       0.02366864 </v>
   <v>       0.02366864 </v>
   <v>       0.02366864 </v>
   <v>       0.02366864 </v>
   <v>       0.02366864 </v>
   <v>       0.02366864 </v>
   <v>       0.02366864 </v>
   <v>       0.02366864 </v>
   <v>       0.02366864 </v>
   <v>       0.02366864 </v>
   <v>       0.01183432 </v>
   <v>       0.01183432 </v>
   <v>       0.02366864 </v>
   <v>       0.02366864 </v>
   <v>       0.02366864 </v>
   <v>       0.02366864 </v>
   <v>       0.02366864 </v>
   <v>       0.02366864 </v>
   <v>       0.02366864 </v>
   <v>       0.02366864 </v>
   <v>       0.01183432 </v>
   <v>       0.01183432 </v>
   <v>       0.02366864 </v>
   <v>       0.02366864 </v>
   <v>       0.02366864 </v>
   <v>       0.02366864 </v>
   <v>       0.02366864 </v>
   <v>       0.02366864 </v>
   <v>       0.01183432 </v>
   <v>       0.01183432 </v>
   <v>       0.02366864 </v>
   <v>       0.02366864 </v>
   <v>       0.02366864 </v>
   <v>       0.02366864 </v>
   <v>       0.01183432 </v>
   <v>       0.01183432 </v>
   <v>       0.02366864 </v>
   <v>       0.02366864 </v>
   <v>       0.01183432 </v>
   <v>       0.01183432 </v>
   <v>       0.01183432 </v>
  </varray>
 </kpoints>
 <parameters>
  <separator name="general" >
   <i type="string" name="SYSTEM">Cu111</i>
   <i type="logical" name="LCOMPAT"> F  </i>
  </separator>
  <separator name="electronic" >
   <i type="string" name="PREC">normal</i>
   <i name="ENMAX">    450.00000000</i>
   <i name="ENAUG">    586.98000000</i>
   <i name="EDIFF">      0.00001000</i>
   <i type="int" name="IALGO">    68</i>
   <i type="int" name="IWAVPR">    11</i>
   <i type="int" name="NBANDS">    32</i>
   <i name="NELECT">     44.00000000</i>
   <i type="int" name="TURBO">     0</i>
   <i type="int" name="IRESTART">     0</i>
   <i type="int" name="NREBOOT">     0</i>
   <i type="int" name="NMIN">     0</i>
   <i name="EREF">      0.00000000</i>
   <separator name="electronic smearing" >
    <i type="int" name="ISMEAR">     1</i>
    <i name="SIGMA">      0.20000000</i>
    <i name="KSPACING">      0.50000000</i>
    <i type="logical" name="KGAMMA"> T  </i>
   </separator>
   <separator name="electronic projectors" >
    <i type="logical" name="LREAL"> F  </i>
    <v name="ROPT">      0.00000000</v>
    <i type="int" name="LMAXPAW">  -100</i>
    <i type="int" name="LMAXMIX">     2</i>
    <i type="logical" name="NLSPLINE"> F  </i>
   </separator>
   <separator name="electronic startup" >
    <i type="int" name="ISTART">     0</i>
    <i type="int" name="ICHARG">     2</i>
    <i type="int" name="INIWAV">     1</i>
   </separator>
   <separator name="electronic spin" >
    <i type="int" name="ISPIN">     1</i>
    <i type="logical" name="LNONCOLLINEAR"> F  </i>
    <v name="MAGMOM">      1.00000000      1.00000000      1.00000000      1.00000000</v>
    <i name="NUPDOWN">     -1.00000000</i>
    <i type="logical" name="LSORBIT"> F  </i>
    <v name="SAXIS">      0.00000000      0.00000000      1.00000000</v>
    <i type="logical" name="LSPIRAL"> F  </i>
    <v name="QSPIRAL">      0.00000000      0.00000000      0.00000000</v>
    <i type="logical" name="LZEROZ"> F  </i>
   </separator>
   <separator name="electronic exchange-correlation" >
    <i type="logical" name="LASPH"> F  </i>
    <i type="logical" name="LMETAGGA"> F  </i>
   </separator>
   <separator name="electronic convergence" >
    <i type="int" name="NELM">    60</i>
    <i type="int" name="NELMDL">    -5</i>
    <i type="int" name="NELMIN">     2</i>
    <i name="ENINI">    450.00000000</i>
    <separator name="electronic convergence detail" >
     <i type="logical" name="LDIAG"> T  </i>
     <i type="logical" name="LSUBROT"> T  </i>
     <i name="WEIMIN">      0.00100000</i>
     <i name="EBREAK">      0.00000008</i>
     <i name="DEPER">      0.30000000</i>
     <i type="int" name="NRMM">     4</i>
     <i name="TIME">      0.40000000</i>
    </separator>
   </separator>
   <separator name="electronic mixer" >
    <i name="AMIX">      0.40000000</i>
    <i name="BMIX">      1.00000000</i>
    <i name="AMIN">      0.10000000</i>
    <i name="AMIX_MAG">      1.60000000</i>
    <i name="BMIX_MAG">      1.00000000</i>
    <separator name="electronic mixer details" >
     <i type="int" name="IMIX">     4</i>
     <i type="int" name="MAXMIX">   -45</i>
     <i name="WC">    100.00000000</i>
     <i type="int" name="INIMIX">     1</i>
     <i type="int" name="MIXPRE">     1</i>
     <i type="int" name="MREMOVE">     5</i>
    </separator>
   </separator>
   <separator name="electronic dipolcorrection" >
    <i type="logical" name="LDIPOL"> F  </i>
    <i type="logical" name="LMONO"> F  </i>
    <i type="int" name="IDIPOL">     0</i>
    <i name="EPSILON">      1.00000000</i>
    <v name="DIPOL">   -100.00000000   -100.00000000   -100.00000000</v>
    <i name="EFIELD">      0.00000000</i>
   </separator>
  </separator>
  <separator name="grids" >
   <i type="int" name="NGX">    14</i>
   <i type="int" name="NGY">    14</i>
   <i type="int" name="NGZ">   112</i>
   <i type="int" name="NGXF">    28</i>
   <i type="int" name="NGYF">    28</i>
   <i type="int" name="NGZF">   224</i>
   <i type="logical" name="ADDGRID"> F  </i>
  </separator>
  <separator name="ionic" >
   <i type="int" name="NSW">     1</i>
   <i type="int" name="IBRION">     2</i>
   <i type="int" name="ISIF">     2</i>
   <i name="PSTRESS">      0.00000000</i>
   <i name="EDIFFG">     -0.01000000</i>
   <i type="int" name="NFREE">     1</i>
   <i name="POTIM">      0.10000000</i>
   <i name="SMASS">     -3.00000000</i>
   <i name="SCALEE">      1.00000000</i>
  </separator>
  <separator name="ionic md" >
   <i name="TEBEG">      0.00010000</i>
   <i name="TEEND">      0.00010000</i>
   <i type="int" name="NBLOCK">     1</i>
   <i type="int" name="KBLOCK">     1</i>
   <i type="int" name="NPACO">   256</i>
   <i name="APACO">     16.00000000</i>
  </separator>
  <separator name="symmetry" >
   <i type="int" name="ISYM">     2</i>
   <i name="SYMPREC">      0.00001000</i>
  </separator>
  <separator name="dos" >
   <i type="logical" name="LORBIT"> F  </i>
   <v name="RWIGS">     -1.00000000</v>
   <i type="int" name="NEDOS">   301</i>
   <i name="EMIN">     10.00000000</i>
   <i name="EMAX">    -10.00000000</i>
   <i name="EFERMI">      0.00000000</i>
  </separator>
  <separator name="writing" >
   <i type="int" name="NWRITE">     0</i>
   <i type="logical" name="LWAVE"> F  </i>
   <i type="logical" name="LCHARG"> F  </i>
   <i type="logical" name="LPARD"> F  </i>
   <i type="logical" name="LVTOT"> F  </i>
   <i type="logical" name="LVHAR"> T  </i>
   <i type="logical" name="LELF"> F  </i>
   <i type="logical" name="LOPTICS"> F  </i>
   <v name="STM">      0.00000000      0.00000000      0.00000000      0.00000000      0.00000000      0.00000000      0.00000000</v>
  </separator>
  <separator name="performance" >
   <i type="int" name="NPAR">     8</i>
   <i type="int" name="NSIM">     4</i>
   <i type="int" name="NBLK">    -1</i>
   <i type="logical" name="LPLANE"> T  </i>
   <i type="logical" name="LSCALAPACK"> F  </i>
   <i type="logical" name="LSCAAWARE"> F  </i>
   <i type="logical" name="LSCALU"> F  </i>
   <i type="logical" name="LASYNC"> F  </i>
   <i type="logical" name="LORBITALREAL"> F  </i>
  </separator>
  <separator name="miscellaneous" >
   <i type="int" name="IDIOT">     3</i>
   <i type="logical" name="LMUSIC"> F  </i>
   <v name="POMASS">     63.54600000</v>
   <v name="DARWINR">      0.00000000</v>
   <v name="DARWINV">      1.00000000</v>
   <i type="logical" name="LCORR"> T  </i>
  </separator>
  <i type="logical" name="GGA_COMPAT"> T  </i>
  <i type="logical" name="LBERRY"> F  </i>
  <i type="int" name="ICORELEVEL">     0</i>
  <i type="logical" name="LDAU"> F  </i>
  <i type="int" name="I_CONSTRAINED_M">     0</i>
  <separator name="electronic exchange-correlation" >
   <i type="string" name="GGA">--</i>
   <i type="int" name="VOSKOWN">     0</i>
   <i type="logical" name="LHFCALC"> F  </i>
   <i type="string" name="PRECFOCK"></i>
   <i type="logical" name="LSYMGRAD"> F  </i>
   <i type="logical" name="LHFONE"> F  </i>
   <i type="logical" name="LRHFCALC"> F  </i>
   <i type="logical" name="LTHOMAS"> F  </i>
   <i type="logical" name="LMODELHF"> F  </i>
   <i name="ENCUT4O">     -1.00000000</i>
   <i type="int" name="EXXOEP">     0</i>
   <i type="int" name="FOURORBIT">     0</i>
   <i name="AEXX">      0.00000000</i>
   <i name="HFALPHA">      0.00000000</i>
   <i name="MCALPHA">      0.00000000</i>
   <i name="ALDAX">      1.00000000</i>
   <i name="AGGAX">      1.00000000</i>
   <i name="ALDAC">      1.00000000</i>
   <i name="AGGAC">      1.00000000</i>
   <i type="int" name="NKREDX">     1</i>
   <i type="int" name="NKREDY">     1</i>
   <i type="int" name="NKREDZ">     1</i>
   <i type="logical" name="SHIFTRED"> F  </i>
   <i type="logical" name="ODDONLY"> F  </i>
   <i type="logical" name="EVENONLY"> F  </i>
   <i type="int" name="LMAXFOCK">     0</i>
   <i type="int" name="NMAXFOCKAE">     0</i>
   <i type="logical" name="LFOCKAEDFT"> F  </i>
   <i name="HFSCREEN">      0.00000000</i>
   <i name="HFSCREENC">      0.00000000</i>
   <i type="int" name="NBANDSGWLOW">     0</i>
  </separator>
  <separator name="vdW DFT" >
   <i type="logical" name="LUSE_VDW"> F  </i>
   <i name="Zab_VDW">     -0.84910000</i>
   <i name="PARAM1">      0.12340000</i>
   <i name="PARAM2">      1.00000000</i>
   <i name="PARAM3">      0.00000000</i>
  </separator>
  <separator name="model GW" >
   <i type="int" name="MODEL_GW">     0</i>
   <i name="MODEL_EPS0">     18.29910754</i>
   <i name="MODEL_ALPHA">      1.00000000</i>
  </separator>
  <separator name="linear response parameters" >
   <i type="logical" name="LEPSILON"> F  </i>
   <i type="logical" name="LRPA"> F  </i>
   <i type="logical" name="LNABLA"> F  </i>
   <i type="logical" name="LVEL"> F  </i>
   <i type="int" name="KINTER">     0</i>
   <i name="CSHIFT">      0.10000000</i>
   <i name="OMEGAMAX">     -1.00000000</i>
   <i name="DEG_THRESHOLD">      0.00200000</i>
  </separator>
  <separator name="orbital magnetization" >
   <i type="logical" name="NUCIND"> F  </i>
   <v name="MAGPOS">      0.00000000      0.00000000      0.00000000</v>
   <i type="logical" name="LNICSALL"> T  </i>
   <i type="logical" name="ORBITALMAG"> F  </i>
   <i type="logical" name="LMAGBLOCH"> F  </i>
   <i type="logical" name="LCHIMAG"> F  </i>
   <i type="logical" name="LGAUGE"> T  </i>
   <i type="int" name="MAGATOM">     0</i>
   <v name="MAGDIPOL">      0.00000000      0.00000000      0.00000000</v>
   <v name="AVECCONST">      0.00000000      0.00000000      0.00000000</v>
  </separator>
  <separator name="response functions" >
   <i type="logical" name="LADDER"> F  </i>
   <i type="logical" name="LFXC"> F  </i>
   <i type="logical" name="LHARTREE"> T  </i>
   <i type="int" name="IBSE">     0</i>
   <i type="logical" name="LTCTE"> F  </i>
   <i type="logical" name="LTETE"> F  </i>
   <i type="logical" name="LTRIPLET"> F  </i>
   <i type="logical" name="LFXCEPS"> F  </i>
   <i type="logical" name="L2ORDER"> F  </i>
   <i type="logical" name="LUSEW"> F  </i>
   <i name="ENCUTGW">     -2.00000000</i>
   <i name="ENCUTGWSOFT">     -2.00000000</i>
   <i name="ENCUTLF">     -1.00000000</i>
   <i type="int" name="LMAXMP2">    -1</i>
   <i name="SCISSOR">      0.00000000</i>
   <i type="int" name="NOMEGA">     0</i>
   <i type="int" name="NOMEGAR">     0</i>
   <i type="int" name="NBANDSGW">    -1</i>
   <i type="int" name="NBANDSO">    -1</i>
   <i type="int" name="NBANDSV">    -1</i>
   <i type="int" name="NELM">     1</i>
   <i type="int" name="DIM">     3</i>
   <i type="int" name="ANTIRES">     0</i>
   <i name="OMEGAMAX">    -30.00000000</i>
   <i name="OMEGATL">   -200.00000000</i>
   <i type="int" name="OMEGAGRID">     0</i>
   <i name="CSHIFT">     -0.10000000</i>
   <i type="logical" name="SELFENERGY"> F  </i>
   <i type="logical" name="LSPECTRAL"> F  </i>
   <i type="logical" name="ODDONLYGW"> F  </i>
   <i type="logical" name="EVENONLYGW"> F  </i>
   <i type="int" name="NKREDLFX">     1</i>
   <i type="int" name="NKREDLFY">     1</i>
   <i type="int" name="NKREDLFZ">     1</i>
   <i type="int" name="MAXMEM">  1800</i>
   <i type="int" name="TELESCOPE">     0</i>
  </separator>
 </parameters>
 <atominfo>
  <atoms>       4 </atoms>
  <types>       1 </types>
  <array name="atoms" >
   <dimension dim="1">ion</dimension>
   <field type="string">element</field>
   <field type="int">atomtype</field>
   <set>
    <rc><c>Cu</c><c>   1</c></rc>
    <rc><c>Cu</c><c>   1</c></rc>
    <rc><c>Cu</c><c>   1</c></rc>
    <rc><c>Cu</c><c>   1</c></rc>
   </set>
  </array>
  <array name="atomtypes" >
   <dimension dim="1">type</dimension>
   <field type="int">atomspertype</field>
   <field type="string">element</field>
   <field>mass</field>
   <field>valence</field>
   <field type="string">pseudopotential</field>
   <set>
    <rc><c>   4</c><c>Cu</c><c>     63.54600000</c><c>     11.00000000</c><c>  PAW_PBE Cu 22Jun2005                  </c></rc>
   </set>
  </array>
 </atominfo>
 <structure name="initialpos" >
  <crystal>
   <varray name="basis" >
    <v>       2.57170010       0.00000000       0.00000000 </v>
    <v>      -1.28585005       2.22715761       0.00000000 </v>
    <v>       0.00000000       0.00000000      21.29940033 </v>
   </varray>
   <i name="volume">    121.99405023 </i>
   <varray name="rec_basis" >
    <v>       0.38884783       0.22450140       0.00000000 </v>
    <v>       0.00000000       0.44900280       0.00000000 </v>
    <v>       0.00000000       0.00000000       0.04694968 </v>
   </varray>
  </crystal>
  <varray name="positions" >
   <v>       0.00000000       0.00000000       0.00000000 </v>
   <v>       0.33333001       0.66667002       0.09859000 </v>
   <v>       0.00000473       0.99999527       0.29387060 </v>
   <v>       0.66666776       0.33333227       0.19667340 </v>
  </varray>
  <varray name="selective"  type="logical" >
   <v type="logical" >  F  F  F </v>
   <v type="logical" >  F  F  F </v>
   <v type="logical" >  T  T  T </v>
   <v type="logical" >  T  T  T </v>
  </varray>
  <nose>
   <v>      -3.00000000       0.00000000       0.00010000       0.00010000 </v>
  </nose>
 </structure>
 <calculation>
  <scstep>
   <time name="dav">    2.92    2.93</time>
   <time name="total">    2.99    3.01</time>
   <energy>
    <i name="alphaZ">     95.91655142 </i>
    <i name="ewald">  16486.15309932 </i>
    <i name="hartreedc"> -21847.22436455 </i>
    <i name="XCdc">    182.03753322 </i>
    <i name="pawpsdc">   4912.82663951 </i>
    <i name="pawaedc">  -5336.19386850 </i>
    <i name="eentropy">      0.00615139 </i>
    <i name="bandstr">    289.79989791 </i>
    <i name="atom">   5563.88447798 </i>
    <i name="e_fr_energy">    347.20611769 </i>
    <i name="e_wo_entrp">    347.19996630 </i>
    <i name="e_0_energy">    347.20406723 </i>
   </energy>
  </scstep>
  <scstep>
   <time name="dav">    2.91    2.92</time>
   <time name="total">    2.91    2.92</time>
   <energy>
    <i name="e_fr_energy">     11.53473083 </i>
    <i name="e_wo_entrp">     11.53496198 </i>
    <i name="e_0_energy">     11.53480788 </i>
   </energy>
  </scstep>
  <scstep>
   <time name="dav">    3.27    3.29</time>
   <time name="total">    3.27    3.29</time>
   <energy>
    <i name="e_fr_energy">    -16.40866810 </i>
    <i name="e_wo_entrp">    -16.39325165 </i>
    <i name="e_0_energy">    -16.40352928 </i>
   </energy>
  </scstep>
  <scstep>
   <time name="dav">    3.26    3.27</time>
   <time name="total">    3.26    3.27</time>
   <energy>
    <i name="e_fr_energy">    -17.17286530 </i>
    <i name="e_wo_entrp">    -17.15738758 </i>
    <i name="e_0_energy">    -17.16770606 </i>
   </energy>
  </scstep>
  <scstep>
   <time name="dav">    3.41    3.42</time>
   <time name="total">    3.72    3.74</time>
   <energy>
    <i name="e_fr_energy">    -17.19057463 </i>
    <i name="e_wo_entrp">    -17.17509472 </i>
    <i name="e_0_energy">    -17.18541466 </i>
   </energy>
  </scstep>
  <scstep>
   <time name="diag">    0.70    0.70</time>
   <time name="diis">    1.97    1.99</time>
   <time name="orth">    0.07    0.07</time>
   <time name="total">    3.09    3.11</time>
   <energy>
    <i name="e_fr_energy">    -15.75545891 </i>
    <i name="e_wo_entrp">    -15.75646084 </i>
    <i name="e_0_energy">    -15.75579289 </i>
   </energy>
  </scstep>
  <scstep>
   <time name="diag">    0.70    0.70</time>
   <time name="diis">    1.98    1.99</time>
   <time name="orth">    0.06    0.06</time>
   <time name="total">    3.10    3.11</time>
   <energy>
    <i name="e_fr_energy">    -14.01048946 </i>
    <i name="e_wo_entrp">    -14.00671700 </i>
    <i name="e_0_energy">    -14.00923198 </i>
   </energy>
  </scstep>
  <scstep>
   <time name="diag">    0.70    0.71</time>
   <time name="diis">    1.99    2.00</time>
   <time name="orth">    0.07    0.07</time>
   <time name="total">    3.11    3.13</time>
   <energy>
    <i name="e_fr_energy">    -13.98309211 </i>
    <i name="e_wo_entrp">    -13.97882060 </i>
    <i name="e_0_energy">    -13.98166828 </i>
   </energy>
  </scstep>
  <scstep>
   <time name="diag">    0.70    0.70</time>
   <time name="diis">    2.10    2.11</time>
   <time name="orth">    0.06    0.07</time>
   <time name="total">    3.21    3.23</time>
   <energy>
    <i name="e_fr_energy">    -13.97783184 </i>
    <i name="e_wo_entrp">    -13.97249068 </i>
    <i name="e_0_energy">    -13.97605145 </i>
   </energy>
  </scstep>
  <scstep>
   <time name="diag">    0.70    0.70</time>
   <time name="diis">    1.97    1.98</time>
   <time name="orth">    0.07    0.07</time>
   <time name="total">    3.08    3.10</time>
   <energy>
    <i name="e_fr_energy">    -13.97343437 </i>
    <i name="e_wo_entrp">    -13.96863761 </i>
    <i name="e_0_energy">    -13.97183545 </i>
   </energy>
  </scstep>
  <scstep>
   <time name="diag">    0.70    0.70</time>
   <time name="diis">    2.00    2.01</time>
   <time name="orth">    0.06    0.07</time>
   <time name="total">    3.12    3.13</time>
   <energy>
    <i name="e_fr_energy">    -13.97281633 </i>
    <i name="e_wo_entrp">    -13.96843831 </i>
    <i name="e_0_energy">    -13.97135699 </i>
   </energy>
  </scstep>
  <scstep>
   <time name="diag">    0.70    0.71</time>
   <time name="diis">    1.99    2.00</time>
   <time name="orth">    0.07    0.07</time>
   <time name="total">    3.11    3.13</time>
   <energy>
    <i name="e_fr_energy">    -13.97232128 </i>
    <i name="e_wo_entrp">    -13.96771850 </i>
    <i name="e_0_energy">    -13.97078702 </i>
   </energy>
  </scstep>
  <scstep>
   <time name="diag">    0.70    0.70</time>
   <time name="diis">    1.97    1.98</time>
   <time name="orth">    0.06    0.07</time>
   <time name="total">    3.09    3.10</time>
   <energy>
    <i name="e_fr_energy">    -13.97212773 </i>
    <i name="e_wo_entrp">    -13.96760701 </i>
    <i name="e_0_energy">    -13.97062082 </i>
   </energy>
  </scstep>
  <scstep>
   <time name="diag">    0.70    0.70</time>
   <time name="diis">    1.86    1.87</time>
   <time name="orth">    0.06    0.07</time>
   <time name="total">    2.98    2.99</time>
   <energy>
    <i name="e_fr_energy">    -13.97211035 </i>
    <i name="e_wo_entrp">    -13.96754097 </i>
    <i name="e_0_energy">    -13.97058723 </i>
   </energy>
  </scstep>
  <scstep>
   <time name="diag">    0.70    0.70</time>
   <time name="diis">    1.52    1.53</time>
   <time name="orth">    0.06    0.07</time>
   <time name="total">    2.63    2.64</time>
   <energy>
    <i name="e_fr_energy">    -13.97214606 </i>
    <i name="e_wo_entrp">    -13.96756793 </i>
    <i name="e_0_energy">    -13.97062002 </i>
   </energy>
  </scstep>
  <scstep>
   <time name="diag">    0.70    0.70</time>
   <time name="diis">    1.52    1.53</time>
   <time name="orth">    0.07    0.07</time>
   <time name="total">    2.63    2.65</time>
   <energy>
    <i name="e_fr_energy">    -13.97225894 </i>
    <i name="e_wo_entrp">    -13.96768799 </i>
    <i name="e_0_energy">    -13.97073529 </i>
   </energy>
  </scstep>
  <scstep>
   <time name="diag">    0.70    0.70</time>
   <time name="diis">    1.46    1.47</time>
   <time name="orth">    0.06    0.07</time>
   <time name="total">    2.57    2.59</time>
   <energy>
    <i name="e_fr_energy">    -13.97230288 </i>
    <i name="e_wo_entrp">    -13.96774232 </i>
    <i name="e_0_energy">    -13.97078269 </i>
   </energy>
  </scstep>
  <scstep>
   <time name="diag">    0.70    0.70</time>
   <time name="diis">    1.47    1.48</time>
   <time name="orth">    0.07    0.07</time>
   <time name="total">    2.59    2.60</time>
   <energy>
    <i name="e_fr_energy">    -13.97233305 </i>
    <i name="e_wo_entrp">    -13.96777397 </i>
    <i name="e_0_energy">    -13.97081336 </i>
   </energy>
  </scstep>
  <scstep>
   <time name="diag">    0.70    0.70</time>
   <time name="diis">    1.46    1.47</time>
   <time name="orth">    0.06    0.07</time>
   <time name="total">    2.58    2.59</time>
   <energy>
    <i name="e_fr_energy">    -13.97235002 </i>
    <i name="e_wo_entrp">    -13.96779129 </i>
    <i name="e_0_energy">    -13.97083044 </i>
   </energy>
  </scstep>
  <scstep>
   <time name="diag">    0.70    0.70</time>
   <time name="diis">    1.37    1.38</time>
   <time name="orth">    0.06    0.06</time>
   <time name="total">    2.54    2.59</time>
   <energy>
    <i name="e_fr_energy">    -13.97236060 </i>
    <i name="e_wo_entrp">    -13.96779930 </i>
    <i name="e_0_energy">    -13.97084017 </i>
   </energy>
  </scstep>
  <scstep>
   <time name="diag">    0.70    0.70</time>
   <time name="diis">    1.39    1.39</time>
   <time name="orth">    0.06    0.06</time>
   <time name="total">    2.50    2.52</time>
   <energy>
    <i name="e_fr_energy">    -13.97237435 </i>
    <i name="e_wo_entrp">    -13.96781537 </i>
    <i name="e_0_energy">    -13.97085469 </i>
   </energy>
  </scstep>
  <scstep>
   <time name="diag">    0.70    0.70</time>
   <time name="diis">    1.19    1.20</time>
   <time name="orth">    0.06    0.06</time>
   <time name="total">    1.99    2.00</time>
   <energy>
    <i name="alphaZ">     95.91655142 </i>
    <i name="ewald">  16486.15309932 </i>
    <i name="hartreedc"> -21786.81461311 </i>
    <i name="XCdc">    178.01182241 </i>
    <i name="pawpsdc">   5204.09532926 </i>
    <i name="pawaedc">  -5634.41025789 </i>
    <i name="eentropy">     -0.00455927 </i>
    <i name="bandstr">   -120.80423044 </i>
    <i name="atom">   5563.88447798 </i>
    <i name="e_fr_energy">    -13.97238032 </i>
    <i name="e_wo_entrp">    -13.96782105 </i>
    <i name="e_0_energy">    -13.97086057 </i>
   </energy>
  </scstep>
  <structure>
   <crystal>
    <varray name="basis" >
     <v>       2.57170010       0.00000000       0.00000000 </v>
     <v>      -1.28585005       2.22715761       0.00000000 </v>
     <v>       0.00000000       0.00000000      21.29940033 </v>
    </varray>
    <i name="volume">    121.99405023 </i>
    <varray name="rec_basis" >
     <v>       0.38884783       0.22450140       0.00000000 </v>
     <v>       0.00000000       0.44900280       0.00000000 </v>
     <v>       0.00000000       0.00000000       0.04694968 </v>
    </varray>
   </crystal>
   <varray name="positions" >
    <v>       0.00000000       0.00000000       0.00000000 </v>
    <v>       0.33333001       0.66667002       0.09859000 </v>
    <v>       0.00000473       0.99999527       0.29387060 </v>
    <v>       0.66666776       0.33333227       0.19667340 </v>
   </varray>
  </structure>
  <varray name="forces" >
   <v>      -0.00001756       0.00001014       0.09935640 </v>
   <v>      -0.00000006       0.00000004      -0.11121903 </v>
   <v>       0.00000170      -0.00000098       0.00436206 </v>
   <v>       0.00001592      -0.00000919       0.00750057 </v>
  </varray>
  <varray name="stress" >
   <v>     -16.98876279      -0.00716312      -0.00001431 </v>
   <v>      -0.00716312     -16.99703406       0.00000826 </v>
   <v>      -0.00001449       0.00000836      -5.21350131 </v>
  </varray>
  <energy>
   <i name="e_fr_energy">    -13.97238032 </i>
   <i name="e_wo_entrp">    -13.97086057 </i>
   <i name="e_0_energy">     -0.00455927 </i>
  </energy>
  <time name="totalsc">   66.18   66.56</time>
  <eigenvalues>
   <array>
    <dimension dim="1">band</dimension>
    <dimension dim="2">kpoint</dimension>
    <dimension dim="3">spin</dimension>
    <field>eigene</field>
    <field>occ</field>
    <set>
     <set comment="spin 1">
      <set comment="kpoint 1">
       <r>   -8.7582    1.0000 </r>
       <r>   -7.4363    1.0000 </r>
       <r>   -5.7732    1.0000 </r>
       <r>   -4.9784    1.0000 </r>
       <r>   -3.0040    1.0000 </r>
       <r>   -2.9145    1.0000 </r>
       <r>   -2.9145    1.0000 </r>
       <r>   -2.8871    1.0000 </r>
       <r>   -2.8672    1.0000 </r>
       <r>   -2.8672    1.0000 </r>
       <r>   -2.5914    1.0000 </r>
       <r>   -2.5659    1.0000 </r>
       <r>   -2.5659    1.0000 </r>
       <r>   -2.5015    1.0000 </r>
       <r>   -2.5015    1.0000 </r>
       <r>   -2.0911    1.0000 </r>
       <r>   -2.0911    1.0000 </r>
       <r>   -1.9403    1.0000 </r>
       <r>   -1.9403    1.0000 </r>
       <r>   -1.6097    1.0000 </r>
       <r>   -1.6097    1.0000 </r>
       <r>   -1.5041    1.0000 </r>
       <r>   -1.5041    1.0000 </r>
       <r>   -1.0721    1.0000 </r>
       <r>   -0.0662    0.8530 </r>
       <r>    4.3363    0.0000 </r>
       <r>    4.4677    0.0000 </r>
       <r>    5.7570    0.0000 </r>
       <r>    6.1148    0.0000 </r>
       <r>    7.9062    0.0000 </r>
       <r>    7.4072    0.0000 </r>
       <r>    8.7159    0.0000 </r>
      </set>
      <set comment="kpoint 2">
       <r>   -8.5716    1.0000 </r>
       <r>   -7.2576    1.0000 </r>
       <r>   -5.6097    1.0000 </r>
       <r>   -4.8496    1.0000 </r>
       <r>   -3.0637    1.0000 </r>
       <r>   -3.0234    1.0000 </r>
       <r>   -2.9626    1.0000 </r>
       <r>   -2.8512    1.0000 </r>
       <r>   -2.8174    1.0000 </r>
       <r>   -2.7888    1.0000 </r>
       <r>   -2.6867    1.0000 </r>
       <r>   -2.6065    1.0000 </r>
       <r>   -2.5196    1.0000 </r>
       <r>   -2.4915    1.0000 </r>
       <r>   -2.4448    1.0000 </r>
       <r>   -2.1202    1.0000 </r>
       <r>   -2.1098    1.0000 </r>
       <r>   -1.9344    1.0000 </r>
       <r>   -1.8988    1.0000 </r>
       <r>   -1.8023    1.0000 </r>
       <r>   -1.6827    1.0000 </r>
       <r>   -1.6132    1.0000 </r>
       <r>   -1.5029    1.0000 </r>
       <r>   -0.7127    1.0000 </r>
       <r>    0.3841   -0.0151 </r>
       <r>    4.4844    0.0000 </r>
       <r>    4.6482    0.0000 </r>
       <r>    5.9342    0.0000 </r>
       <r>    6.2639    0.0000 </r>
       <r>    7.4419    0.0000 </r>
       <r>    7.1516    0.0000 </r>
       <r>    9.0013    0.0000 </r>
      </set>
      <set comment="kpoint 3">
       <r>   -8.0240    1.0000 </r>
       <r>   -6.7410    1.0000 </r>
       <r>   -5.1574    1.0000 </r>
       <r>   -4.5049    1.0000 </r>
       <r>   -3.2777    1.0000 </r>
       <r>   -3.1726    1.0000 </r>
       <r>   -3.1027    1.0000 </r>
       <r>   -2.8100    1.0000 </r>
       <r>   -2.7363    1.0000 </r>
       <r>   -2.7064    1.0000 </r>
       <r>   -2.7039    1.0000 </r>
       <r>   -2.6667    1.0000 </r>
       <r>   -2.5289    1.0000 </r>
       <r>   -2.4194    1.0000 </r>
       <r>   -2.2921    1.0000 </r>
       <r>   -2.2327    1.0000 </r>
       <r>   -2.1069    1.0000 </r>
       <r>   -2.0899    1.0000 </r>
       <r>   -1.9722    1.0000 </r>
       <r>   -1.9232    1.0000 </r>
       <r>   -1.6230    1.0000 </r>
       <r>   -1.4999    1.0000 </r>
       <r>   -1.4882    1.0000 </r>
       <r>   -0.0724    0.8702 </r>
       <r>    1.3554    0.0000 </r>
       <r>    4.9298    0.0000 </r>
       <r>    5.1896    0.0000 </r>
       <r>    6.4656    0.0000 </r>
       <r>    6.7231    0.0000 </r>
       <r>    6.8858    0.0000 </r>
       <r>    6.8918    0.0000 </r>
       <r>    9.6089    0.0000 </r>
      </set>
      <set comment="kpoint 4">
       <r>   -7.1616    1.0000 </r>
       <r>   -5.9678    1.0000 </r>
       <r>   -4.5924    1.0000 </r>
       <r>   -4.1077    1.0000 </r>
       <r>   -3.5276    1.0000 </r>
       <r>   -3.2964    1.0000 </r>
       <r>   -3.2388    1.0000 </r>
       <r>   -2.8902    1.0000 </r>
       <r>   -2.8143    1.0000 </r>
       <r>   -2.7091    1.0000 </r>
       <r>   -2.6441    1.0000 </r>
       <r>   -2.4979    1.0000 </r>
       <r>   -2.4227    1.0000 </r>
       <r>   -2.4206    1.0000 </r>
       <r>   -2.3035    1.0000 </r>
       <r>   -2.1876    1.0000 </r>
       <r>   -2.1033    1.0000 </r>
       <r>   -1.9150    1.0000 </r>
       <r>   -1.9127    1.0000 </r>
       <r>   -1.8522    1.0000 </r>
       <r>   -1.6375    1.0000 </r>
       <r>   -1.4951    1.0000 </r>
       <r>   -1.1169    1.0000 </r>
       <r>    0.7174    0.0000 </r>
       <r>    2.5955    0.0000 </r>
       <r>    5.6763    0.0000 </r>
       <r>    6.0898    0.0000 </r>
       <r>    7.3455    0.0000 </r>
       <r>    7.5104    0.0000 </r>
       <r>    6.7879    0.0000 </r>
       <r>    7.0074    0.0000 </r>
       <r>    8.5651    0.0000 </r>
      </set>
      <set comment="kpoint 5">
       <r>   -6.1093    1.0000 </r>
       <r>   -5.1693    1.0000 </r>
       <r>   -4.2961    1.0000 </r>
       <r>   -3.9809    1.0000 </r>
       <r>   -3.6934    1.0000 </r>
       <r>   -3.4037    1.0000 </r>
       <r>   -3.1971    1.0000 </r>
       <r>   -2.9893    1.0000 </r>
       <r>   -2.7542    1.0000 </r>
       <r>   -2.6916    1.0000 </r>
       <r>   -2.5509    1.0000 </r>
       <r>   -2.3882    1.0000 </r>
       <r>   -2.2909    1.0000 </r>
       <r>   -2.2719    1.0000 </r>
       <r>   -2.0759    1.0000 </r>
       <r>   -1.9592    1.0000 </r>
       <r>   -1.9137    1.0000 </r>
       <r>   -1.7623    1.0000 </r>
       <r>   -1.6873    1.0000 </r>
       <r>   -1.6554    1.0000 </r>
       <r>   -1.6147    1.0000 </r>
       <r>   -1.4798    1.0000 </r>
       <r>   -0.5557    1.0001 </r>
       <r>    1.6920    0.0000 </r>
       <r>    4.0393    0.0000 </r>
       <r>    6.6720    0.0000 </r>
       <r>    7.3177    0.0000 </r>
       <r>    8.0611    0.0000 </r>
       <r>    7.5218    0.0000 </r>
       <r>    6.8096    0.0000 </r>
       <r>    6.4106    0.0000 </r>
       <r>    7.7272    0.0000 </r>
      </set>
      <set comment="kpoint 6">
       <r>   -5.1829    1.0000 </r>
       <r>   -4.7118    1.0000 </r>
       <r>   -4.2449    1.0000 </r>
       <r>   -4.0856    1.0000 </r>
       <r>   -3.8292    1.0000 </r>
       <r>   -3.5555    1.0000 </r>
       <r>   -3.0871    1.0000 </r>
       <r>   -2.8970    1.0000 </r>
       <r>   -2.7861    1.0000 </r>
       <r>   -2.7580    1.0000 </r>
       <r>   -2.4180    1.0000 </r>
       <r>   -2.2900    1.0000 </r>
       <r>   -1.9906    1.0000 </r>
       <r>   -1.8502    1.0000 </r>
       <r>   -1.7175    1.0000 </r>
       <r>   -1.6931    1.0000 </r>
       <r>   -1.6541    1.0000 </r>
       <r>   -1.5398    1.0000 </r>
       <r>   -1.5243    1.0000 </r>
       <r>   -1.3976    1.0000 </r>
       <r>   -1.3666    1.0000 </r>
       <r>   -1.0968    1.0000 </r>
       <r>    0.4022   -0.0118 </r>
       <r>    2.7305    0.0000 </r>
       <r>    5.2032    0.0000 </r>
       <r>    5.7968    0.0000 </r>
       <r>    6.6548    0.0000 </r>
       <r>    8.1480    0.0000 </r>
       <r>    7.6436    0.0000 </r>
       <r>    7.3146    0.0000 </r>
       <r>    7.1024    0.0000 </r>
       <r>    6.8085    0.0000 </r>
      </set>
      <set comment="kpoint 7">
       <r>   -4.7656    1.0000 </r>
       <r>   -4.5991    1.0000 </r>
       <r>   -4.2042    1.0000 </r>
       <r>   -4.1083    1.0000 </r>
       <r>   -3.9583    1.0000 </r>
       <r>   -3.6506    1.0000 </r>
       <r>   -3.0816    1.0000 </r>
       <r>   -2.9499    1.0000 </r>
       <r>   -2.7986    1.0000 </r>
       <r>   -2.6118    1.0000 </r>
       <r>   -2.3042    1.0000 </r>
       <r>   -2.2846    1.0000 </r>
       <r>   -1.7747    1.0000 </r>
       <r>   -1.7596    1.0000 </r>
       <r>   -1.6052    1.0000 </r>
       <r>   -1.5904    1.0000 </r>
       <r>   -1.5772    1.0000 </r>
       <r>   -1.4929    1.0000 </r>
       <r>   -1.2561    1.0000 </r>
       <r>   -1.2310    1.0000 </r>
       <r>   -0.4649    1.0014 </r>
       <r>    0.3295   -0.0273 </r>
       <r>    1.3497    0.0000 </r>
       <r>    2.1615    0.0000 </r>
       <r>    4.3629    0.0000 </r>
       <r>    5.3584    0.0000 </r>
       <r>    6.0244    0.0000 </r>
       <r>    7.6545    0.0000 </r>
       <r>    8.1746    0.0000 </r>
       <r>    7.5994    0.0000 </r>
       <r>    7.2221    0.0000 </r>
       <r>    6.8751    0.0000 </r>
      </set>
      <set comment="kpoint 8">
       <r>   -8.2042    1.0000 </r>
       <r>   -6.9093    1.0000 </r>
       <r>   -5.2998    1.0000 </r>
       <r>   -4.6106    1.0000 </r>
       <r>   -3.1907    1.0000 </r>
       <r>   -3.1512    1.0000 </r>
       <r>   -3.0670    1.0000 </r>
       <r>   -2.7930    1.0000 </r>
       <r>   -2.7435    1.0000 </r>
       <r>   -2.7302    1.0000 </r>
       <r>   -2.7150    1.0000 </r>
       <r>   -2.6904    1.0000 </r>
       <r>   -2.5346    1.0000 </r>
       <r>   -2.4252    1.0000 </r>
       <r>   -2.3436    1.0000 </r>
       <r>   -2.1716    1.0000 </r>
       <r>   -2.1121    1.0000 </r>
       <r>   -2.0830    1.0000 </r>
       <r>   -1.9539    1.0000 </r>
       <r>   -1.8352    1.0000 </r>
       <r>   -1.7281    1.0000 </r>
       <r>   -1.5286    1.0000 </r>
       <r>   -1.4949    1.0000 </r>
       <r>   -0.2570    1.0309 </r>
       <r>    1.0650    0.0000 </r>
       <r>    4.7813    0.0000 </r>
       <r>    5.0092    0.0000 </r>
       <r>    6.2886    0.0000 </r>
       <r>    6.5685    0.0000 </r>
       <r>    6.9563    0.0000 </r>
       <r>    6.9304    0.0000 </r>
       <r>    9.4425    0.0000 </r>
      </set>
      <set comment="kpoint 9">
       <r>   -7.4961    1.0000 </r>
       <r>   -6.2574    1.0000 </r>
       <r>   -4.7711    1.0000 </r>
       <r>   -4.2186    1.0000 </r>
       <r>   -3.4092    1.0000 </r>
       <r>   -3.2906    1.0000 </r>
       <r>   -3.2182    1.0000 </r>
       <r>   -2.8775    1.0000 </r>
       <r>   -2.8215    1.0000 </r>
       <r>   -2.7718    1.0000 </r>
       <r>   -2.6718    1.0000 </r>
       <r>   -2.5510    1.0000 </r>
       <r>   -2.4922    1.0000 </r>
       <r>   -2.3383    1.0000 </r>
       <r>   -2.3002    1.0000 </r>
       <r>   -2.2510    1.0000 </r>
       <r>   -2.1122    1.0000 </r>
       <r>   -2.0018    1.0000 </r>
       <r>   -1.9128    1.0000 </r>
       <r>   -1.8318    1.0000 </r>
       <r>   -1.6774    1.0000 </r>
       <r>   -1.5462    1.0000 </r>
       <r>   -1.2245    1.0000 </r>
       <r>    0.4262   -0.0082 </r>
       <r>    2.1336    0.0000 </r>
       <r>    5.3791    0.0000 </r>
       <r>    5.7305    0.0000 </r>
       <r>    6.9965    0.0000 </r>
       <r>    7.1963    0.0000 </r>
       <r>    6.7012    0.0000 </r>
       <r>    6.8795    0.0000 </r>
       <r>   10.1758    0.0000 </r>
      </set>
      <set comment="kpoint 10">
       <r>   -6.5238    1.0000 </r>
       <r>   -5.4428    1.0000 </r>
       <r>   -4.3214    1.0000 </r>
       <r>   -3.9234    1.0000 </r>
       <r>   -3.5822    1.0000 </r>
       <r>   -3.3871    1.0000 </r>
       <r>   -3.2881    1.0000 </r>
       <r>   -2.9883    1.0000 </r>
       <r>   -2.8173    1.0000 </r>
       <r>   -2.7284    1.0000 </r>
       <r>   -2.7050    1.0000 </r>
       <r>   -2.5464    1.0000 </r>
       <r>   -2.4430    1.0000 </r>
       <r>   -2.2829    1.0000 </r>
       <r>   -2.2061    1.0000 </r>
       <r>   -2.1224    1.0000 </r>
       <r>   -1.9197    1.0000 </r>
       <r>   -1.8319    1.0000 </r>
       <r>   -1.6889    1.0000 </r>
       <r>   -1.6597    1.0000 </r>
       <r>   -1.6478    1.0000 </r>
       <r>   -1.5331    1.0000 </r>
       <r>   -0.7584    1.0000 </r>
       <r>    1.3061    0.0000 </r>
       <r>    3.4588    0.0000 </r>
       <r>    6.2786    0.0000 </r>
       <r>    6.8064    0.0000 </r>
       <r>    7.8588    0.0000 </r>
       <r>    8.0018    0.0000 </r>
       <r>    6.6001    0.0000 </r>
       <r>    7.2840    0.0000 </r>
       <r>    7.5477    0.0000 </r>
      </set>
      <set comment="kpoint 11">
       <r>   -5.4923    1.0000 </r>
       <r>   -4.7961    1.0000 </r>
       <r>   -4.2093    1.0000 </r>
       <r>   -3.9803    1.0000 </r>
       <r>   -3.6967    1.0000 </r>
       <r>   -3.4669    1.0000 </r>
       <r>   -3.1751    1.0000 </r>
       <r>   -3.0147    1.0000 </r>
       <r>   -2.8113    1.0000 </r>
       <r>   -2.7305    1.0000 </r>
       <r>   -2.5400    1.0000 </r>
       <r>   -2.3493    1.0000 </r>
       <r>   -2.2813    1.0000 </r>
       <r>   -2.1515    1.0000 </r>
       <r>   -1.9686    1.0000 </r>
       <r>   -1.8723    1.0000 </r>
       <r>   -1.7550    1.0000 </r>
       <r>   -1.6540    1.0000 </r>
       <r>   -1.6292    1.0000 </r>
       <r>   -1.4974    1.0000 </r>
       <r>   -1.3430    1.0000 </r>
       <r>   -1.1647    1.0000 </r>
       <r>    0.0668    0.3379 </r>
       <r>    2.3983    0.0000 </r>
       <r>    4.9495    0.0000 </r>
       <r>    6.6965    0.0000 </r>
       <r>    7.4532    0.0000 </r>
       <r>    8.1089    0.0000 </r>
       <r>    8.2581    0.0000 </r>
       <r>    6.8830    0.0000 </r>
       <r>    6.6904    0.0000 </r>
       <r>    6.6418    0.0000 </r>
      </set>
      <set comment="kpoint 12">
       <r>   -4.8139    1.0000 </r>
       <r>   -4.5565    1.0000 </r>
       <r>   -4.1565    1.0000 </r>
       <r>   -4.0801    1.0000 </r>
       <r>   -3.8321    1.0000 </r>
       <r>   -3.5849    1.0000 </r>
       <r>   -3.1343    1.0000 </r>
       <r>   -2.8998    1.0000 </r>
       <r>   -2.8380    1.0000 </r>
       <r>   -2.7045    1.0000 </r>
       <r>   -2.4921    1.0000 </r>
       <r>   -2.2361    1.0000 </r>
       <r>   -1.9766    1.0000 </r>
       <r>   -1.8527    1.0000 </r>
       <r>   -1.7734    1.0000 </r>
       <r>   -1.6830    1.0000 </r>
       <r>   -1.6090    1.0000 </r>
       <r>   -1.5756    1.0000 </r>
       <r>   -1.4703    1.0000 </r>
       <r>   -1.3731    1.0000 </r>
       <r>   -0.6755    1.0000 </r>
       <r>   -0.1061    0.9485 </r>
       <r>    1.2429    0.0000 </r>
       <r>    2.9975    0.0000 </r>
       <r>    4.7571    0.0000 </r>
       <r>    5.6103    0.0000 </r>
       <r>    6.5363    0.0000 </r>
       <r>    7.6583    0.0000 </r>
       <r>    6.6829    0.0000 </r>
       <r>    6.9716    0.0000 </r>
       <r>    6.2323    0.0000 </r>
       <r>    7.8513    0.0000 </r>
      </set>
      <set comment="kpoint 13">
       <r>   -4.6426    1.0000 </r>
       <r>   -4.5268    1.0000 </r>
       <r>   -4.1576    1.0000 </r>
       <r>   -4.0144    1.0000 </r>
       <r>   -3.9330    1.0000 </r>
       <r>   -3.6316    1.0000 </r>
       <r>   -3.1329    1.0000 </r>
       <r>   -2.9387    1.0000 </r>
       <r>   -2.8070    1.0000 </r>
       <r>   -2.6401    1.0000 </r>
       <r>   -2.4710    1.0000 </r>
       <r>   -2.2050    1.0000 </r>
       <r>   -1.8443    1.0000 </r>
       <r>   -1.7928    1.0000 </r>
       <r>   -1.7186    1.0000 </r>
       <r>   -1.6370    1.0000 </r>
       <r>   -1.5546    1.0000 </r>
       <r>   -1.5238    1.0000 </r>
       <r>   -1.3578    1.0000 </r>
       <r>   -1.3410    1.0000 </r>
       <r>    0.2541   -0.0340 </r>
       <r>    1.0531    0.0000 </r>
       <r>    1.6311    0.0000 </r>
       <r>    1.9320    0.0000 </r>
       <r>    4.3406    0.0000 </r>
       <r>    5.2605    0.0000 </r>
       <r>    6.2524    0.0000 </r>
       <r>    7.4469    0.0000 </r>
       <r>    6.3103    0.0000 </r>
       <r>    6.8658    0.0000 </r>
       <r>    8.1805    0.0000 </r>
       <r>    8.0799    0.0000 </r>
      </set>
      <set comment="kpoint 14">
       <r>   -4.8139    1.0000 </r>
       <r>   -4.5565    1.0000 </r>
       <r>   -4.1565    1.0000 </r>
       <r>   -4.0801    1.0000 </r>
       <r>   -3.8321    1.0000 </r>
       <r>   -3.5849    1.0000 </r>
       <r>   -3.1343    1.0000 </r>
       <r>   -2.8999    1.0000 </r>
       <r>   -2.8380    1.0000 </r>
       <r>   -2.7045    1.0000 </r>
       <r>   -2.4921    1.0000 </r>
       <r>   -2.2361    1.0000 </r>
       <r>   -1.9766    1.0000 </r>
       <r>   -1.8527    1.0000 </r>
       <r>   -1.7734    1.0000 </r>
       <r>   -1.6830    1.0000 </r>
       <r>   -1.6090    1.0000 </r>
       <r>   -1.5756    1.0000 </r>
       <r>   -1.4703    1.0000 </r>
       <r>   -1.3731    1.0000 </r>
       <r>   -0.6755    1.0000 </r>
       <r>   -0.1061    0.9485 </r>
       <r>    1.2429    0.0000 </r>
       <r>    2.9976    0.0000 </r>
       <r>    4.7571    0.0000 </r>
       <r>    5.6103    0.0000 </r>
       <r>    6.5363    0.0000 </r>
       <r>    7.6583    0.0000 </r>
       <r>    6.3204    0.0000 </r>
       <r>    7.0969    0.0000 </r>
       <r>    6.5085    0.0000 </r>
       <r>    7.8508    0.0000 </r>
      </set>
      <set comment="kpoint 15">
       <r>   -5.4923    1.0000 </r>
       <r>   -4.7961    1.0000 </r>
       <r>   -4.2093    1.0000 </r>
       <r>   -3.9803    1.0000 </r>
       <r>   -3.6967    1.0000 </r>
       <r>   -3.4669    1.0000 </r>
       <r>   -3.1751    1.0000 </r>
       <r>   -3.0147    1.0000 </r>
       <r>   -2.8113    1.0000 </r>
       <r>   -2.7305    1.0000 </r>
       <r>   -2.5400    1.0000 </r>
       <r>   -2.3493    1.0000 </r>
       <r>   -2.2813    1.0000 </r>
       <r>   -2.1515    1.0000 </r>
       <r>   -1.9686    1.0000 </r>
       <r>   -1.8723    1.0000 </r>
       <r>   -1.7550    1.0000 </r>
       <r>   -1.6540    1.0000 </r>
       <r>   -1.6292    1.0000 </r>
       <r>   -1.4974    1.0000 </r>
       <r>   -1.3430    1.0000 </r>
       <r>   -1.1647    1.0000 </r>
       <r>    0.0668    0.3379 </r>
       <r>    2.3983    0.0000 </r>
       <r>    4.9495    0.0000 </r>
       <r>    6.6965    0.0000 </r>
       <r>    7.4532    0.0000 </r>
       <r>    8.1062    0.0000 </r>
       <r>    8.2605    0.0000 </r>
       <r>    6.8714    0.0000 </r>
       <r>    6.6943    0.0000 </r>
       <r>    6.6250    0.0000 </r>
      </set>
      <set comment="kpoint 16">
       <r>   -6.5238    1.0000 </r>
       <r>   -5.4428    1.0000 </r>
       <r>   -4.3214    1.0000 </r>
       <r>   -3.9234    1.0000 </r>
       <r>   -3.5822    1.0000 </r>
       <r>   -3.3871    1.0000 </r>
       <r>   -3.2881    1.0000 </r>
       <r>   -2.9883    1.0000 </r>
       <r>   -2.8173    1.0000 </r>
       <r>   -2.7284    1.0000 </r>
       <r>   -2.7050    1.0000 </r>
       <r>   -2.5464    1.0000 </r>
       <r>   -2.4430    1.0000 </r>
       <r>   -2.2829    1.0000 </r>
       <r>   -2.2060    1.0000 </r>
       <r>   -2.1224    1.0000 </r>
       <r>   -1.9197    1.0000 </r>
       <r>   -1.8319    1.0000 </r>
       <r>   -1.6889    1.0000 </r>
       <r>   -1.6597    1.0000 </r>
       <r>   -1.6478    1.0000 </r>
       <r>   -1.5331    1.0000 </r>
       <r>   -0.7584    1.0000 </r>
       <r>    1.3061    0.0000 </r>
       <r>    3.4588    0.0000 </r>
       <r>    6.2786    0.0000 </r>
       <r>    6.8064    0.0000 </r>
       <r>    7.7829    0.0000 </r>
       <r>    8.0200    0.0000 </r>
       <r>    6.5933    0.0000 </r>
       <r>    7.2285    0.0000 </r>
       <r>    7.5473    0.0000 </r>
      </set>
      <set comment="kpoint 17">
       <r>   -7.4961    1.0000 </r>
       <r>   -6.2574    1.0000 </r>
       <r>   -4.7711    1.0000 </r>
       <r>   -4.2186    1.0000 </r>
       <r>   -3.4092    1.0000 </r>
       <r>   -3.2906    1.0000 </r>
       <r>   -3.2182    1.0000 </r>
       <r>   -2.8775    1.0000 </r>
       <r>   -2.8215    1.0000 </r>
       <r>   -2.7718    1.0000 </r>
       <r>   -2.6718    1.0000 </r>
       <r>   -2.5510    1.0000 </r>
       <r>   -2.4923    1.0000 </r>
       <r>   -2.3383    1.0000 </r>
       <r>   -2.3002    1.0000 </r>
       <r>   -2.2510    1.0000 </r>
       <r>   -2.1122    1.0000 </r>
       <r>   -2.0018    1.0000 </r>
       <r>   -1.9128    1.0000 </r>
       <r>   -1.8318    1.0000 </r>
       <r>   -1.6774    1.0000 </r>
       <r>   -1.5462    1.0000 </r>
       <r>   -1.2245    1.0000 </r>
       <r>    0.4262   -0.0082 </r>
       <r>    2.1336    0.0000 </r>
       <r>    5.3791    0.0000 </r>
       <r>    5.7305    0.0000 </r>
       <r>    6.9966    0.0000 </r>
       <r>    7.1963    0.0000 </r>
       <r>    6.7072    0.0000 </r>
       <r>    6.8707    0.0000 </r>
       <r>   10.2079    0.0000 </r>
      </set>
      <set comment="kpoint 18">
       <r>   -8.2042    1.0000 </r>
       <r>   -6.9093    1.0000 </r>
       <r>   -5.2998    1.0000 </r>
       <r>   -4.6106    1.0000 </r>
       <r>   -3.1907    1.0000 </r>
       <r>   -3.1512    1.0000 </r>
       <r>   -3.0670    1.0000 </r>
       <r>   -2.7930    1.0000 </r>
       <r>   -2.7435    1.0000 </r>
       <r>   -2.7303    1.0000 </r>
       <r>   -2.7150    1.0000 </r>
       <r>   -2.6904    1.0000 </r>
       <r>   -2.5346    1.0000 </r>
       <r>   -2.4252    1.0000 </r>
       <r>   -2.3436    1.0000 </r>
       <r>   -2.1716    1.0000 </r>
       <r>   -2.1121    1.0000 </r>
       <r>   -2.0830    1.0000 </r>
       <r>   -1.9539    1.0000 </r>
       <r>   -1.8352    1.0000 </r>
       <r>   -1.7281    1.0000 </r>
       <r>   -1.5285    1.0000 </r>
       <r>   -1.4949    1.0000 </r>
       <r>   -0.2570    1.0309 </r>
       <r>    1.0650    0.0000 </r>
       <r>    4.7813    0.0000 </r>
       <r>    5.0092    0.0000 </r>
       <r>    6.2886    0.0000 </r>
       <r>    6.5687    0.0000 </r>
       <r>    7.1522    0.0000 </r>
       <r>    6.9226    0.0000 </r>
       <r>    9.3951    0.0000 </r>
      </set>
      <set comment="kpoint 19">
       <r>   -8.5716    1.0000 </r>
       <r>   -7.2576    1.0000 </r>
       <r>   -5.6097    1.0000 </r>
       <r>   -4.8496    1.0000 </r>
       <r>   -3.0637    1.0000 </r>
       <r>   -3.0234    1.0000 </r>
       <r>   -2.9626    1.0000 </r>
       <r>   -2.8512    1.0000 </r>
       <r>   -2.8174    1.0000 </r>
       <r>   -2.7888    1.0000 </r>
       <r>   -2.6867    1.0000 </r>
       <r>   -2.6065    1.0000 </r>
       <r>   -2.5196    1.0000 </r>
       <r>   -2.4915    1.0000 </r>
       <r>   -2.4448    1.0000 </r>
       <r>   -2.1202    1.0000 </r>
       <r>   -2.1098    1.0000 </r>
       <r>   -1.9344    1.0000 </r>
       <r>   -1.8988    1.0000 </r>
       <r>   -1.8023    1.0000 </r>
       <r>   -1.6827    1.0000 </r>
       <r>   -1.6132    1.0000 </r>
       <r>   -1.5029    1.0000 </r>
       <r>   -0.7127    1.0000 </r>
       <r>    0.3841   -0.0151 </r>
       <r>    4.4844    0.0000 </r>
       <r>    4.6482    0.0000 </r>
       <r>    5.9342    0.0000 </r>
       <r>    6.2640    0.0000 </r>
       <r>    7.6165    0.0000 </r>
       <r>    7.1950    0.0000 </r>
       <r>    8.9279    0.0000 </r>
      </set>
      <set comment="kpoint 20">
       <r>   -6.6685    1.0000 </r>
       <r>   -5.5428    1.0000 </r>
       <r>   -4.3170    1.0000 </r>
       <r>   -3.8671    1.0000 </r>
       <r>   -3.5259    1.0000 </r>
       <r>   -3.3993    1.0000 </r>
       <r>   -3.3212    1.0000 </r>
       <r>   -2.9954    1.0000 </r>
       <r>   -2.9212    1.0000 </r>
       <r>   -2.8773    1.0000 </r>
       <r>   -2.7744    1.0000 </r>
       <r>   -2.5380    1.0000 </r>
       <r>   -2.4379    1.0000 </r>
       <r>   -2.2982    1.0000 </r>
       <r>   -2.2428    1.0000 </r>
       <r>   -2.1581    1.0000 </r>
       <r>   -1.9209    1.0000 </r>
       <r>   -1.7670    1.0000 </r>
       <r>   -1.7230    1.0000 </r>
       <r>   -1.6749    1.0000 </r>
       <r>   -1.6484    1.0000 </r>
       <r>   -1.5676    1.0000 </r>
       <r>   -0.7939    1.0000 </r>
       <r>    1.1853    0.0000 </r>
       <r>    3.2608    0.0000 </r>
       <r>    6.1393    0.0000 </r>
       <r>    6.6301    0.0000 </r>
       <r>    7.7845    0.0000 </r>
       <r>    7.9602    0.0000 </r>
       <r>    7.1824    0.0000 </r>
       <r>    7.4874    0.0000 </r>
       <r>    8.9309    0.0000 </r>
      </set>
      <set comment="kpoint 21">
       <r>   -5.6688    1.0000 </r>
       <r>   -4.8200    1.0000 </r>
       <r>   -4.1189    1.0000 </r>
       <r>   -3.7860    1.0000 </r>
       <r>   -3.5382    1.0000 </r>
       <r>   -3.4583    1.0000 </r>
       <r>   -3.2766    1.0000 </r>
       <r>   -3.0793    1.0000 </r>
       <r>   -2.9057    1.0000 </r>
       <r>   -2.8249    1.0000 </r>
       <r>   -2.7602    1.0000 </r>
       <r>   -2.5866    1.0000 </r>
       <r>   -2.4701    1.0000 </r>
       <r>   -2.2818    1.0000 </r>
       <r>   -2.1277    1.0000 </r>
       <r>   -1.9696    1.0000 </r>
       <r>   -1.8276    1.0000 </r>
       <r>   -1.6414    1.0000 </r>
       <r>   -1.6324    1.0000 </r>
       <r>   -1.5461    1.0000 </r>
       <r>   -1.2856    1.0000 </r>
       <r>   -1.0882    1.0000 </r>
       <r>   -0.0051    0.6367 </r>
       <r>    2.2246    0.0000 </r>
       <r>    4.6484    0.0000 </r>
       <r>    7.1728    0.0000 </r>
       <r>    7.8157    0.0000 </r>
       <r>    7.7170    0.0000 </r>
       <r>    6.8977    0.0000 </r>
       <r>    6.5392    0.0000 </r>
       <r>    6.8762    0.0000 </r>
       <r>    7.3677    0.0000 </r>
      </set>
      <set comment="kpoint 22">
       <r>   -4.8085    1.0000 </r>
       <r>   -4.4227    1.0000 </r>
       <r>   -4.0705    1.0000 </r>
       <r>   -3.9253    1.0000 </r>
       <r>   -3.6180    1.0000 </r>
       <r>   -3.4612    1.0000 </r>
       <r>   -3.2588    1.0000 </r>
       <r>   -3.0557    1.0000 </r>
       <r>   -2.9391    1.0000 </r>
       <r>   -2.7034    1.0000 </r>
       <r>   -2.5771    1.0000 </r>
       <r>   -2.4368    1.0000 </r>
       <r>   -2.3303    1.0000 </r>
       <r>   -2.1999    1.0000 </r>
       <r>   -1.9445    1.0000 </r>
       <r>   -1.9052    1.0000 </r>
       <r>   -1.7991    1.0000 </r>
       <r>   -1.5984    1.0000 </r>
       <r>   -1.5067    1.0000 </r>
       <r>   -1.4381    1.0000 </r>
       <r>   -0.6352    1.0000 </r>
       <r>   -0.1222    0.9760 </r>
       <r>    1.2310    0.0000 </r>
       <r>    3.4419    0.0000 </r>
       <r>    5.6550    0.0000 </r>
       <r>    6.2928    0.0000 </r>
       <r>    7.1023    0.0000 </r>
       <r>    7.3865    0.0000 </r>
       <r>    6.7096    0.0000 </r>
       <r>    6.9355    0.0000 </r>
       <r>    6.6142    0.0000 </r>
       <r>    7.0687    0.0000 </r>
      </set>
      <set comment="kpoint 23">
       <r>   -4.4492    1.0000 </r>
       <r>   -4.3507    1.0000 </r>
       <r>   -4.0145    1.0000 </r>
       <r>   -3.9165    1.0000 </r>
       <r>   -3.7295    1.0000 </r>
       <r>   -3.5231    1.0000 </r>
       <r>   -3.2727    1.0000 </r>
       <r>   -2.9533    1.0000 </r>
       <r>   -2.8986    1.0000 </r>
       <r>   -2.6995    1.0000 </r>
       <r>   -2.6238    1.0000 </r>
       <r>   -2.2609    1.0000 </r>
       <r>   -2.1497    1.0000 </r>
       <r>   -2.0401    1.0000 </r>
       <r>   -1.8615    1.0000 </r>
       <r>   -1.7681    1.0000 </r>
       <r>   -1.6838    1.0000 </r>
       <r>   -1.5665    1.0000 </r>
       <r>   -1.5149    1.0000 </r>
       <r>   -1.4330    1.0000 </r>
       <r>    0.5524   -0.0007 </r>
       <r>    1.2769    0.0000 </r>
       <r>    2.3431    0.0000 </r>
       <r>    2.9762    0.0000 </r>
       <r>    4.6533    0.0000 </r>
       <r>    5.7748    0.0000 </r>
       <r>    6.4456    0.0000 </r>
       <r>    8.1213    0.0000 </r>
       <r>    6.9984    0.0000 </r>
       <r>    6.1887    0.0000 </r>
       <r>    7.3395    0.0000 </r>
       <r>    7.4678    0.0000 </r>
      </set>
      <set comment="kpoint 24">
       <r>   -4.4492    1.0000 </r>
       <r>   -4.3507    1.0000 </r>
       <r>   -4.0145    1.0000 </r>
       <r>   -3.9165    1.0000 </r>
       <r>   -3.7295    1.0000 </r>
       <r>   -3.5231    1.0000 </r>
       <r>   -3.2727    1.0000 </r>
       <r>   -2.9533    1.0000 </r>
       <r>   -2.8986    1.0000 </r>
       <r>   -2.6995    1.0000 </r>
       <r>   -2.6238    1.0000 </r>
       <r>   -2.2609    1.0000 </r>
       <r>   -2.1497    1.0000 </r>
       <r>   -2.0401    1.0000 </r>
       <r>   -1.8615    1.0000 </r>
       <r>   -1.7681    1.0000 </r>
       <r>   -1.6838    1.0000 </r>
       <r>   -1.5665    1.0000 </r>
       <r>   -1.5149    1.0000 </r>
       <r>   -1.4330    1.0000 </r>
       <r>    0.5524   -0.0007 </r>
       <r>    1.2769    0.0000 </r>
       <r>    2.3431    0.0000 </r>
       <r>    2.9762    0.0000 </r>
       <r>    4.6533    0.0000 </r>
       <r>    5.7748    0.0000 </r>
       <r>    6.4456    0.0000 </r>
       <r>    8.1201    0.0000 </r>
       <r>    7.0033    0.0000 </r>
       <r>    6.1682    0.0000 </r>
       <r>    7.1356    0.0000 </r>
       <r>    7.8118    0.0000 </r>
      </set>
      <set comment="kpoint 25">
       <r>   -4.8085    1.0000 </r>
       <r>   -4.4227    1.0000 </r>
       <r>   -4.0705    1.0000 </r>
       <r>   -3.9253    1.0000 </r>
       <r>   -3.6180    1.0000 </r>
       <r>   -3.4612    1.0000 </r>
       <r>   -3.2588    1.0000 </r>
       <r>   -3.0557    1.0000 </r>
       <r>   -2.9391    1.0000 </r>
       <r>   -2.7034    1.0000 </r>
       <r>   -2.5771    1.0000 </r>
       <r>   -2.4368    1.0000 </r>
       <r>   -2.3303    1.0000 </r>
       <r>   -2.1999    1.0000 </r>
       <r>   -1.9445    1.0000 </r>
       <r>   -1.9052    1.0000 </r>
       <r>   -1.7991    1.0000 </r>
       <r>   -1.5984    1.0000 </r>
       <r>   -1.5067    1.0000 </r>
       <r>   -1.4381    1.0000 </r>
       <r>   -0.6352    1.0000 </r>
       <r>   -0.1223    0.9760 </r>
       <r>    1.2310    0.0000 </r>
       <r>    3.4419    0.0000 </r>
       <r>    5.6550    0.0000 </r>
       <r>    6.2928    0.0000 </r>
       <r>    7.1023    0.0000 </r>
       <r>    7.2796    0.0000 </r>
       <r>    6.6582    0.0000 </r>
       <r>    7.0842    0.0000 </r>
       <r>    6.4315    0.0000 </r>
       <r>    7.2493    0.0000 </r>
      </set>
      <set comment="kpoint 26">
       <r>   -5.6688    1.0000 </r>
       <r>   -4.8200    1.0000 </r>
       <r>   -4.1189    1.0000 </r>
       <r>   -3.7860    1.0000 </r>
       <r>   -3.5382    1.0000 </r>
       <r>   -3.4583    1.0000 </r>
       <r>   -3.2766    1.0000 </r>
       <r>   -3.0793    1.0000 </r>
       <r>   -2.9057    1.0000 </r>
       <r>   -2.8249    1.0000 </r>
       <r>   -2.7602    1.0000 </r>
       <r>   -2.5866    1.0000 </r>
       <r>   -2.4701    1.0000 </r>
       <r>   -2.2818    1.0000 </r>
       <r>   -2.1276    1.0000 </r>
       <r>   -1.9696    1.0000 </r>
       <r>   -1.8276    1.0000 </r>
       <r>   -1.6414    1.0000 </r>
       <r>   -1.6324    1.0000 </r>
       <r>   -1.5461    1.0000 </r>
       <r>   -1.2856    1.0000 </r>
       <r>   -1.0882    1.0000 </r>
       <r>   -0.0051    0.6367 </r>
       <r>    2.2246    0.0000 </r>
       <r>    4.6484    0.0000 </r>
       <r>    7.1728    0.0000 </r>
       <r>    7.8175    0.0000 </r>
       <r>    7.7257    0.0000 </r>
       <r>    6.8444    0.0000 </r>
       <r>    6.5378    0.0000 </r>
       <r>    6.8960    0.0000 </r>
       <r>    7.3616    0.0000 </r>
      </set>
      <set comment="kpoint 27">
       <r>   -6.6685    1.0000 </r>
       <r>   -5.5428    1.0000 </r>
       <r>   -4.3170    1.0000 </r>
       <r>   -3.8671    1.0000 </r>
       <r>   -3.5259    1.0000 </r>
       <r>   -3.3993    1.0000 </r>
       <r>   -3.3212    1.0000 </r>
       <r>   -2.9954    1.0000 </r>
       <r>   -2.9212    1.0000 </r>
       <r>   -2.8773    1.0000 </r>
       <r>   -2.7744    1.0000 </r>
       <r>   -2.5380    1.0000 </r>
       <r>   -2.4379    1.0000 </r>
       <r>   -2.2982    1.0000 </r>
       <r>   -2.2428    1.0000 </r>
       <r>   -2.1581    1.0000 </r>
       <r>   -1.9209    1.0000 </r>
       <r>   -1.7670    1.0000 </r>
       <r>   -1.7230    1.0000 </r>
       <r>   -1.6749    1.0000 </r>
       <r>   -1.6484    1.0000 </r>
       <r>   -1.5676    1.0000 </r>
       <r>   -0.7939    1.0000 </r>
       <r>    1.1853    0.0000 </r>
       <r>    3.2608    0.0000 </r>
       <r>    6.1393    0.0000 </r>
       <r>    6.6301    0.0000 </r>
       <r>    7.7832    0.0000 </r>
       <r>    7.9620    0.0000 </r>
       <r>    7.1841    0.0000 </r>
       <r>    7.4326    0.0000 </r>
       <r>    8.9652    0.0000 </r>
      </set>
      <set comment="kpoint 28">
       <r>   -7.4961    1.0000 </r>
       <r>   -6.2574    1.0000 </r>
       <r>   -4.7711    1.0000 </r>
       <r>   -4.2187    1.0000 </r>
       <r>   -3.4092    1.0000 </r>
       <r>   -3.2906    1.0000 </r>
       <r>   -3.2182    1.0000 </r>
       <r>   -2.8775    1.0000 </r>
       <r>   -2.8215    1.0000 </r>
       <r>   -2.7718    1.0000 </r>
       <r>   -2.6718    1.0000 </r>
       <r>   -2.5510    1.0000 </r>
       <r>   -2.4923    1.0000 </r>
       <r>   -2.3383    1.0000 </r>
       <r>   -2.3002    1.0000 </r>
       <r>   -2.2510    1.0000 </r>
       <r>   -2.1122    1.0000 </r>
       <r>   -2.0018    1.0000 </r>
       <r>   -1.9128    1.0000 </r>
       <r>   -1.8318    1.0000 </r>
       <r>   -1.6774    1.0000 </r>
       <r>   -1.5462    1.0000 </r>
       <r>   -1.2245    1.0000 </r>
       <r>    0.4262   -0.0082 </r>
       <r>    2.1336    0.0000 </r>
       <r>    5.3791    0.0000 </r>
       <r>    5.7305    0.0000 </r>
       <r>    6.9965    0.0000 </r>
       <r>    7.1962    0.0000 </r>
       <r>    6.6725    0.0000 </r>
       <r>    6.8235    0.0000 </r>
       <r>   10.2034    0.0000 </r>
      </set>
      <set comment="kpoint 29">
       <r>   -8.0240    1.0000 </r>
       <r>   -6.7410    1.0000 </r>
       <r>   -5.1574    1.0000 </r>
       <r>   -4.5049    1.0000 </r>
       <r>   -3.2777    1.0000 </r>
       <r>   -3.1726    1.0000 </r>
       <r>   -3.1027    1.0000 </r>
       <r>   -2.8100    1.0000 </r>
       <r>   -2.7363    1.0000 </r>
       <r>   -2.7064    1.0000 </r>
       <r>   -2.7039    1.0000 </r>
       <r>   -2.6667    1.0000 </r>
       <r>   -2.5289    1.0000 </r>
       <r>   -2.4194    1.0000 </r>
       <r>   -2.2921    1.0000 </r>
       <r>   -2.2327    1.0000 </r>
       <r>   -2.1070    1.0000 </r>
       <r>   -2.0899    1.0000 </r>
       <r>   -1.9722    1.0000 </r>
       <r>   -1.9232    1.0000 </r>
       <r>   -1.6230    1.0000 </r>
       <r>   -1.4999    1.0000 </r>
       <r>   -1.4882    1.0000 </r>
       <r>   -0.0724    0.8702 </r>
       <r>    1.3554    0.0000 </r>
       <r>    4.9298    0.0000 </r>
       <r>    5.1896    0.0000 </r>
       <r>    6.4656    0.0000 </r>
       <r>    6.7232    0.0000 </r>
       <r>    6.9887    0.0000 </r>
       <r>    6.8893    0.0000 </r>
       <r>    9.6018    0.0000 </r>
      </set>
      <set comment="kpoint 30">
       <r>   -4.7955    1.0000 </r>
       <r>   -4.3258    1.0000 </r>
       <r>   -4.0403    1.0000 </r>
       <r>   -3.7150    1.0000 </r>
       <r>   -3.6670    1.0000 </r>
       <r>   -3.3798    1.0000 </r>
       <r>   -3.2590    1.0000 </r>
       <r>   -3.0656    1.0000 </r>
       <r>   -3.0538    1.0000 </r>
       <r>   -2.7353    1.0000 </r>
       <r>   -2.6842    1.0000 </r>
       <r>   -2.5674    1.0000 </r>
       <r>   -2.5356    1.0000 </r>
       <r>   -2.3066    1.0000 </r>
       <r>   -2.0233    1.0000 </r>
       <r>   -1.9535    1.0000 </r>
       <r>   -1.8914    1.0000 </r>
       <r>   -1.6036    1.0000 </r>
       <r>   -1.4877    1.0000 </r>
       <r>   -1.4564    1.0000 </r>
       <r>   -0.6100    1.0000 </r>
       <r>   -0.0973    0.9309 </r>
       <r>    1.2336    0.0000 </r>
       <r>    3.4897    0.0000 </r>
       <r>    6.0490    0.0000 </r>
       <r>    7.5618    0.0000 </r>
       <r>    7.6625    0.0000 </r>
       <r>    8.1716    0.0000 </r>
       <r>    6.8163    0.0000 </r>
       <r>    7.0615    0.0000 </r>
       <r>    5.9146    0.0000 </r>
       <r>    7.1331    0.0000 </r>
      </set>
      <set comment="kpoint 31">
       <r>   -4.2485    1.0000 </r>
       <r>   -4.1228    1.0000 </r>
       <r>   -3.9185    1.0000 </r>
       <r>   -3.7983    1.0000 </r>
       <r>   -3.6048    1.0000 </r>
       <r>   -3.3992    1.0000 </r>
       <r>   -3.3838    1.0000 </r>
       <r>   -3.0834    1.0000 </r>
       <r>   -3.0301    1.0000 </r>
       <r>   -2.6389    1.0000 </r>
       <r>   -2.5830    1.0000 </r>
       <r>   -2.5165    1.0000 </r>
       <r>   -2.4387    1.0000 </r>
       <r>   -2.2710    1.0000 </r>
       <r>   -1.9828    1.0000 </r>
       <r>   -1.9465    1.0000 </r>
       <r>   -1.8216    1.0000 </r>
       <r>   -1.5954    1.0000 </r>
       <r>   -1.5066    1.0000 </r>
       <r>   -1.4525    1.0000 </r>
       <r>    0.5530   -0.0006 </r>
       <r>    1.3552    0.0000 </r>
       <r>    2.8026    0.0000 </r>
       <r>    4.4661    0.0000 </r>
       <r>    5.4345    0.0000 </r>
       <r>    6.3301    0.0000 </r>
       <r>    7.0110    0.0000 </r>
       <r>    7.5843    0.0000 </r>
       <r>    8.2582    0.0000 </r>
       <r>    8.0391    0.0000 </r>
       <r>    6.6652    0.0000 </r>
       <r>    7.1465    0.0000 </r>
      </set>
      <set comment="kpoint 32">
       <r>   -4.1205    1.0000 </r>
       <r>   -4.1100    1.0000 </r>
       <r>   -3.8538    1.0000 </r>
       <r>   -3.7367    1.0000 </r>
       <r>   -3.6076    1.0000 </r>
       <r>   -3.4743    1.0000 </r>
       <r>   -3.4090    1.0000 </r>
       <r>   -3.0466    1.0000 </r>
       <r>   -3.0210    1.0000 </r>
       <r>   -2.6583    1.0000 </r>
       <r>   -2.6187    1.0000 </r>
       <r>   -2.3901    1.0000 </r>
       <r>   -2.3378    1.0000 </r>
       <r>   -2.2912    1.0000 </r>
       <r>   -1.9619    1.0000 </r>
       <r>   -1.9068    1.0000 </r>
       <r>   -1.6887    1.0000 </r>
       <r>   -1.6157    1.0000 </r>
       <r>   -1.5603    1.0000 </r>
       <r>   -1.5188    1.0000 </r>
       <r>    2.0097    0.0000 </r>
       <r>    2.4173    0.0000 </r>
       <r>    3.0611    0.0000 </r>
       <r>    3.5869    0.0000 </r>
       <r>    5.0319    0.0000 </r>
       <r>    5.9609    0.0000 </r>
       <r>    6.7371    0.0000 </r>
       <r>    7.0938    0.0000 </r>
       <r>    8.2123    0.0000 </r>
       <r>    8.2943    0.0000 </r>
       <r>    6.2168    0.0000 </r>
       <r>    7.1558    0.0000 </r>
      </set>
      <set comment="kpoint 33">
       <r>   -4.2485    1.0000 </r>
       <r>   -4.1228    1.0000 </r>
       <r>   -3.9185    1.0000 </r>
       <r>   -3.7983    1.0000 </r>
       <r>   -3.6048    1.0000 </r>
       <r>   -3.3992    1.0000 </r>
       <r>   -3.3838    1.0000 </r>
       <r>   -3.0834    1.0000 </r>
       <r>   -3.0301    1.0000 </r>
       <r>   -2.6389    1.0000 </r>
       <r>   -2.5830    1.0000 </r>
       <r>   -2.5165    1.0000 </r>
       <r>   -2.4387    1.0000 </r>
       <r>   -2.2710    1.0000 </r>
       <r>   -1.9828    1.0000 </r>
       <r>   -1.9465    1.0000 </r>
       <r>   -1.8216    1.0000 </r>
       <r>   -1.5954    1.0000 </r>
       <r>   -1.5066    1.0000 </r>
       <r>   -1.4526    1.0000 </r>
       <r>    0.5530   -0.0006 </r>
       <r>    1.3552    0.0000 </r>
       <r>    2.8026    0.0000 </r>
       <r>    4.4662    0.0000 </r>
       <r>    5.4345    0.0000 </r>
       <r>    6.3301    0.0000 </r>
       <r>    7.0110    0.0000 </r>
       <r>    7.5843    0.0000 </r>
       <r>    8.2437    0.0000 </r>
       <r>    8.0152    0.0000 </r>
       <r>    6.6613    0.0000 </r>
       <r>    7.1968    0.0000 </r>
      </set>
      <set comment="kpoint 34">
       <r>   -4.7955    1.0000 </r>
       <r>   -4.3258    1.0000 </r>
       <r>   -4.0403    1.0000 </r>
       <r>   -3.7150    1.0000 </r>
       <r>   -3.6670    1.0000 </r>
       <r>   -3.3798    1.0000 </r>
       <r>   -3.2590    1.0000 </r>
       <r>   -3.0656    1.0000 </r>
       <r>   -3.0538    1.0000 </r>
       <r>   -2.7353    1.0000 </r>
       <r>   -2.6842    1.0000 </r>
       <r>   -2.5674    1.0000 </r>
       <r>   -2.5356    1.0000 </r>
       <r>   -2.3066    1.0000 </r>
       <r>   -2.0233    1.0000 </r>
       <r>   -1.9535    1.0000 </r>
       <r>   -1.8914    1.0000 </r>
       <r>   -1.6036    1.0000 </r>
       <r>   -1.4877    1.0000 </r>
       <r>   -1.4564    1.0000 </r>
       <r>   -0.6100    1.0000 </r>
       <r>   -0.0973    0.9309 </r>
       <r>    1.2336    0.0000 </r>
       <r>    3.4897    0.0000 </r>
       <r>    6.0490    0.0000 </r>
       <r>    7.5620    0.0000 </r>
       <r>    7.6626    0.0000 </r>
       <r>    8.1851    0.0000 </r>
       <r>    6.8384    0.0000 </r>
       <r>    7.0292    0.0000 </r>
       <r>    5.9511    0.0000 </r>
       <r>    7.1499    0.0000 </r>
      </set>
      <set comment="kpoint 35">
       <r>   -5.6688    1.0000 </r>
       <r>   -4.8200    1.0000 </r>
       <r>   -4.1189    1.0000 </r>
       <r>   -3.7860    1.0000 </r>
       <r>   -3.5382    1.0000 </r>
       <r>   -3.4583    1.0000 </r>
       <r>   -3.2766    1.0000 </r>
       <r>   -3.0793    1.0000 </r>
       <r>   -2.9057    1.0000 </r>
       <r>   -2.8249    1.0000 </r>
       <r>   -2.7602    1.0000 </r>
       <r>   -2.5866    1.0000 </r>
       <r>   -2.4701    1.0000 </r>
       <r>   -2.2818    1.0000 </r>
       <r>   -2.1276    1.0000 </r>
       <r>   -1.9696    1.0000 </r>
       <r>   -1.8276    1.0000 </r>
       <r>   -1.6414    1.0000 </r>
       <r>   -1.6324    1.0000 </r>
       <r>   -1.5461    1.0000 </r>
       <r>   -1.2856    1.0000 </r>
       <r>   -1.0882    1.0000 </r>
       <r>   -0.0051    0.6367 </r>
       <r>    2.2246    0.0000 </r>
       <r>    4.6484    0.0000 </r>
       <r>    7.1728    0.0000 </r>
       <r>    7.8208    0.0000 </r>
       <r>    7.7424    0.0000 </r>
       <r>    6.8802    0.0000 </r>
       <r>    6.5421    0.0000 </r>
       <r>    6.8048    0.0000 </r>
       <r>    7.4317    0.0000 </r>
      </set>
      <set comment="kpoint 36">
       <r>   -6.5238    1.0000 </r>
       <r>   -5.4428    1.0000 </r>
       <r>   -4.3214    1.0000 </r>
       <r>   -3.9234    1.0000 </r>
       <r>   -3.5822    1.0000 </r>
       <r>   -3.3871    1.0000 </r>
       <r>   -3.2881    1.0000 </r>
       <r>   -2.9883    1.0000 </r>
       <r>   -2.8173    1.0000 </r>
       <r>   -2.7284    1.0000 </r>
       <r>   -2.7050    1.0000 </r>
       <r>   -2.5463    1.0000 </r>
       <r>   -2.4429    1.0000 </r>
       <r>   -2.2829    1.0000 </r>
       <r>   -2.2061    1.0000 </r>
       <r>   -2.1224    1.0000 </r>
       <r>   -1.9197    1.0000 </r>
       <r>   -1.8319    1.0000 </r>
       <r>   -1.6889    1.0000 </r>
       <r>   -1.6597    1.0000 </r>
       <r>   -1.6478    1.0000 </r>
       <r>   -1.5331    1.0000 </r>
       <r>   -0.7584    1.0000 </r>
       <r>    1.3061    0.0000 </r>
       <r>    3.4588    0.0000 </r>
       <r>    6.2786    0.0000 </r>
       <r>    6.8063    0.0000 </r>
       <r>    7.8563    0.0000 </r>
       <r>    7.9454    0.0000 </r>
       <r>    6.5714    0.0000 </r>
       <r>    7.2915    0.0000 </r>
       <r>    7.4874    0.0000 </r>
      </set>
      <set comment="kpoint 37">
       <r>   -7.1616    1.0000 </r>
       <r>   -5.9678    1.0000 </r>
       <r>   -4.5924    1.0000 </r>
       <r>   -4.1077    1.0000 </r>
       <r>   -3.5276    1.0000 </r>
       <r>   -3.2964    1.0000 </r>
       <r>   -3.2388    1.0000 </r>
       <r>   -2.8902    1.0000 </r>
       <r>   -2.8142    1.0000 </r>
       <r>   -2.7091    1.0000 </r>
       <r>   -2.6441    1.0000 </r>
       <r>   -2.4979    1.0000 </r>
       <r>   -2.4227    1.0000 </r>
       <r>   -2.4206    1.0000 </r>
       <r>   -2.3035    1.0000 </r>
       <r>   -2.1877    1.0000 </r>
       <r>   -2.1033    1.0000 </r>
       <r>   -1.9151    1.0000 </r>
       <r>   -1.9127    1.0000 </r>
       <r>   -1.8522    1.0000 </r>
       <r>   -1.6375    1.0000 </r>
       <r>   -1.4951    1.0000 </r>
       <r>   -1.1169    1.0000 </r>
       <r>    0.7174    0.0000 </r>
       <r>    2.5955    0.0000 </r>
       <r>    5.6763    0.0000 </r>
       <r>    6.0898    0.0000 </r>
       <r>    7.3455    0.0000 </r>
       <r>    7.5104    0.0000 </r>
       <r>    6.7897    0.0000 </r>
       <r>    7.0062    0.0000 </r>
       <r>    8.5581    0.0000 </r>
      </set>
      <set comment="kpoint 38">
       <r>   -3.9457    1.0000 </r>
       <r>   -3.8782    1.0000 </r>
       <r>   -3.8349    1.0000 </r>
       <r>   -3.6756    1.0000 </r>
       <r>   -3.6182    1.0000 </r>
       <r>   -3.5768    1.0000 </r>
       <r>   -3.4238    1.0000 </r>
       <r>   -3.0420    1.0000 </r>
       <r>   -3.0124    1.0000 </r>
       <r>   -2.6225    1.0000 </r>
       <r>   -2.5746    1.0000 </r>
       <r>   -2.5469    1.0000 </r>
       <r>   -2.5206    1.0000 </r>
       <r>   -2.2659    1.0000 </r>
       <r>   -2.0206    1.0000 </r>
       <r>   -2.0062    1.0000 </r>
       <r>   -1.7259    1.0000 </r>
       <r>   -1.6035    1.0000 </r>
       <r>   -1.5940    1.0000 </r>
       <r>   -1.5461    1.0000 </r>
       <r>    2.2242    0.0000 </r>
       <r>    3.1692    0.0000 </r>
       <r>    4.1916    0.0000 </r>
       <r>    4.5213    0.0000 </r>
       <r>    4.7130    0.0000 </r>
       <r>    5.6313    0.0000 </r>
       <r>    5.9182    0.0000 </r>
       <r>    6.9094    0.0000 </r>
       <r>    7.8533    0.0000 </r>
       <r>    7.8816    0.0000 </r>
       <r>    6.7409    0.0000 </r>
       <r>    6.3220    0.0000 </r>
      </set>
      <set comment="kpoint 39">
       <r>   -3.9457    1.0000 </r>
       <r>   -3.8782    1.0000 </r>
       <r>   -3.8349    1.0000 </r>
       <r>   -3.6756    1.0000 </r>
       <r>   -3.6182    1.0000 </r>
       <r>   -3.5768    1.0000 </r>
       <r>   -3.4238    1.0000 </r>
       <r>   -3.0420    1.0000 </r>
       <r>   -3.0124    1.0000 </r>
       <r>   -2.6225    1.0000 </r>
       <r>   -2.5746    1.0000 </r>
       <r>   -2.5469    1.0000 </r>
       <r>   -2.5206    1.0000 </r>
       <r>   -2.2659    1.0000 </r>
       <r>   -2.0206    1.0000 </r>
       <r>   -2.0062    1.0000 </r>
       <r>   -1.7259    1.0000 </r>
       <r>   -1.6035    1.0000 </r>
       <r>   -1.5940    1.0000 </r>
       <r>   -1.5461    1.0000 </r>
       <r>    2.2242    0.0000 </r>
       <r>    3.1692    0.0000 </r>
       <r>    4.1916    0.0000 </r>
       <r>    4.5213    0.0000 </r>
       <r>    4.7130    0.0000 </r>
       <r>    5.6313    0.0000 </r>
       <r>    5.9182    0.0000 </r>
       <r>    6.9094    0.0000 </r>
       <r>    7.8534    0.0000 </r>
       <r>    7.8819    0.0000 </r>
       <r>    6.6631    0.0000 </r>
       <r>    6.3856    0.0000 </r>
      </set>
      <set comment="kpoint 40">
       <r>   -4.2485    1.0000 </r>
       <r>   -4.1228    1.0000 </r>
       <r>   -3.9185    1.0000 </r>
       <r>   -3.7983    1.0000 </r>
       <r>   -3.6048    1.0000 </r>
       <r>   -3.3992    1.0000 </r>
       <r>   -3.3838    1.0000 </r>
       <r>   -3.0834    1.0000 </r>
       <r>   -3.0301    1.0000 </r>
       <r>   -2.6389    1.0000 </r>
       <r>   -2.5830    1.0000 </r>
       <r>   -2.5165    1.0000 </r>
       <r>   -2.4387    1.0000 </r>
       <r>   -2.2710    1.0000 </r>
       <r>   -1.9828    1.0000 </r>
       <r>   -1.9465    1.0000 </r>
       <r>   -1.8216    1.0000 </r>
       <r>   -1.5954    1.0000 </r>
       <r>   -1.5066    1.0000 </r>
       <r>   -1.4526    1.0000 </r>
       <r>    0.5530   -0.0006 </r>
       <r>    1.3552    0.0000 </r>
       <r>    2.8026    0.0000 </r>
       <r>    4.4662    0.0000 </r>
       <r>    5.4345    0.0000 </r>
       <r>    6.3301    0.0000 </r>
       <r>    7.0110    0.0000 </r>
       <r>    7.5842    0.0000 </r>
       <r>    8.2604    0.0000 </r>
       <r>    8.0012    0.0000 </r>
       <r>    6.7060    0.0000 </r>
       <r>    7.0306    0.0000 </r>
      </set>
      <set comment="kpoint 41">
       <r>   -4.8085    1.0000 </r>
       <r>   -4.4227    1.0000 </r>
       <r>   -4.0705    1.0000 </r>
       <r>   -3.9253    1.0000 </r>
       <r>   -3.6180    1.0000 </r>
       <r>   -3.4612    1.0000 </r>
       <r>   -3.2588    1.0000 </r>
       <r>   -3.0557    1.0000 </r>
       <r>   -2.9391    1.0000 </r>
       <r>   -2.7034    1.0000 </r>
       <r>   -2.5771    1.0000 </r>
       <r>   -2.4368    1.0000 </r>
       <r>   -2.3303    1.0000 </r>
       <r>   -2.1999    1.0000 </r>
       <r>   -1.9445    1.0000 </r>
       <r>   -1.9052    1.0000 </r>
       <r>   -1.7991    1.0000 </r>
       <r>   -1.5984    1.0000 </r>
       <r>   -1.5067    1.0000 </r>
       <r>   -1.4381    1.0000 </r>
       <r>   -0.6352    1.0000 </r>
       <r>   -0.1222    0.9760 </r>
       <r>    1.2311    0.0000 </r>
       <r>    3.4419    0.0000 </r>
       <r>    5.6550    0.0000 </r>
       <r>    6.2928    0.0000 </r>
       <r>    7.1023    0.0000 </r>
       <r>    7.4443    0.0000 </r>
       <r>    6.6951    0.0000 </r>
       <r>    7.0489    0.0000 </r>
       <r>    6.6116    0.0000 </r>
       <r>    7.1268    0.0000 </r>
      </set>
      <set comment="kpoint 42">
       <r>   -5.4923    1.0000 </r>
       <r>   -4.7961    1.0000 </r>
       <r>   -4.2093    1.0000 </r>
       <r>   -3.9803    1.0000 </r>
       <r>   -3.6967    1.0000 </r>
       <r>   -3.4669    1.0000 </r>
       <r>   -3.1751    1.0000 </r>
       <r>   -3.0147    1.0000 </r>
       <r>   -2.8113    1.0000 </r>
       <r>   -2.7305    1.0000 </r>
       <r>   -2.5400    1.0000 </r>
       <r>   -2.3493    1.0000 </r>
       <r>   -2.2813    1.0000 </r>
       <r>   -2.1515    1.0000 </r>
       <r>   -1.9686    1.0000 </r>
       <r>   -1.8723    1.0000 </r>
       <r>   -1.7550    1.0000 </r>
       <r>   -1.6540    1.0000 </r>
       <r>   -1.6292    1.0000 </r>
       <r>   -1.4974    1.0000 </r>
       <r>   -1.3430    1.0000 </r>
       <r>   -1.1647    1.0000 </r>
       <r>    0.0668    0.3379 </r>
       <r>    2.3984    0.0000 </r>
       <r>    4.9495    0.0000 </r>
       <r>    6.6965    0.0000 </r>
       <r>    7.4532    0.0000 </r>
       <r>    8.1084    0.0000 </r>
       <r>    8.2602    0.0000 </r>
       <r>    6.8708    0.0000 </r>
       <r>    6.7024    0.0000 </r>
       <r>    6.6709    0.0000 </r>
      </set>
      <set comment="kpoint 43">
       <r>   -6.1093    1.0000 </r>
       <r>   -5.1693    1.0000 </r>
       <r>   -4.2961    1.0000 </r>
[...]
       <r>   -4.2449    1.0000 </r>
       <r>   -4.0856    1.0000 </r>
       <r>   -3.8292    1.0000 </r>
       <r>   -3.5555    1.0000 </r>
       <r>   -3.0871    1.0000 </r>
       <r>   -2.8970    1.0000 </r>
       <r>   -2.7861    1.0000 </r>
       <r>   -2.7581    1.0000 </r>
       <r>   -2.4180    1.0000 </r>
       <r>   -2.2900    1.0000 </r>
       <r>   -1.9906    1.0000 </r>
       <r>   -1.8502    1.0000 </r>
       <r>   -1.7175    1.0000 </r>
       <r>   -1.6931    1.0000 </r>
       <r>   -1.6541    1.0000 </r>
       <r>   -1.5398    1.0000 </r>
       <r>   -1.5243    1.0000 </r>
       <r>   -1.3976    1.0000 </r>
       <r>   -1.3666    1.0000 </r>
       <r>   -1.0967    1.0000 </r>
       <r>    0.4022   -0.0118 </r>
       <r>    2.7306    0.0000 </r>
       <r>    5.2031    0.0000 </r>
       <r>    5.7968    0.0000 </r>
       <r>    6.6548    0.0000 </r>
       <r>    8.1499    0.0000 </r>
       <r>    7.6966    0.0000 </r>
       <r>    7.2832    0.0000 </r>
       <r>    6.9744    0.0000 </r>
       <r>    6.9194    0.0000 </r>
      </set>
      <set comment="kpoint 48">
       <r>   -4.6427    1.0000 </r>
       <r>   -4.5268    1.0000 </r>
       <r>   -4.1576    1.0000 </r>
       <r>   -4.0144    1.0000 </r>
       <r>   -3.9330    1.0000 </r>
       <r>   -3.6316    1.0000 </r>
       <r>   -3.1329    1.0000 </r>
       <r>   -2.9387    1.0000 </r>
       <r>   -2.8070    1.0000 </r>
       <r>   -2.6401    1.0000 </r>
       <r>   -2.4710    1.0000 </r>
       <r>   -2.2050    1.0000 </r>
       <r>   -1.8443    1.0000 </r>
       <r>   -1.7928    1.0000 </r>
       <r>   -1.7186    1.0000 </r>
       <r>   -1.6370    1.0000 </r>
       <r>   -1.5546    1.0000 </r>
       <r>   -1.5238    1.0000 </r>
       <r>   -1.3578    1.0000 </r>
       <r>   -1.3410    1.0000 </r>
       <r>    0.2541   -0.0340 </r>
       <r>    1.0531    0.0000 </r>
       <r>    1.6312    0.0000 </r>
       <r>    1.9320    0.0000 </r>
       <r>    4.3405    0.0000 </r>
       <r>    5.2604    0.0000 </r>
       <r>    6.2524    0.0000 </r>
       <r>    7.4469    0.0000 </r>
       <r>    6.2616    0.0000 </r>
       <r>    6.8938    0.0000 </r>
       <r>    8.2087    0.0000 </r>
       <r>    8.0748    0.0000 </r>
      </set>
      <set comment="kpoint 49">
       <r>   -4.7656    1.0000 </r>
       <r>   -4.5991    1.0000 </r>
       <r>   -4.2042    1.0000 </r>
       <r>   -4.1083    1.0000 </r>
       <r>   -3.9583    1.0000 </r>
       <r>   -3.6506    1.0000 </r>
       <r>   -3.0816    1.0000 </r>
       <r>   -2.9499    1.0000 </r>
       <r>   -2.7986    1.0000 </r>
       <r>   -2.6118    1.0000 </r>
       <r>   -2.3042    1.0000 </r>
       <r>   -2.2846    1.0000 </r>
       <r>   -1.7747    1.0000 </r>
       <r>   -1.7596    1.0000 </r>
       <r>   -1.6052    1.0000 </r>
       <r>   -1.5904    1.0000 </r>
       <r>   -1.5772    1.0000 </r>
       <r>   -1.4929    1.0000 </r>
       <r>   -1.2562    1.0000 </r>
       <r>   -1.2310    1.0000 </r>
       <r>   -0.4649    1.0014 </r>
       <r>    0.3295   -0.0272 </r>
       <r>    1.3498    0.0000 </r>
       <r>    2.1615    0.0000 </r>
       <r>    4.3629    0.0000 </r>
       <r>    5.3584    0.0000 </r>
       <r>    6.0244    0.0000 </r>
       <r>    7.6545    0.0000 </r>
       <r>    8.1769    0.0000 </r>
       <r>    7.2206    0.0000 </r>
       <r>    7.0933    0.0000 </r>
       <r>    7.4220    0.0000 </r>
      </set>
     </set>
    </set>
   </array>
  </eigenvalues>
  <separator name="orbital magnetization" >
   <v name="MAGDIPOLOUT">      0.00000000      0.00000000      0.00000000</v>
  </separator>
  <dos>
   <i name="efermi">      0.02767446 </i>
   <total>
    <array>
     <dimension dim="1">gridpoints</dimension>
     <dimension dim="2">spin</dimension>
     <field>energy</field>
     <field>total</field>
     <field>integrated</field>
     <set>
      <set comment="spin 1">
       <r>   -10.7582     0.0000     0.0000 </r>
       <r>   -10.6817     0.0000     0.0000 </r>
       <r>   -10.6051     0.0000     0.0000 </r>
       <r>   -10.5286     0.0000     0.0000 </r>
       <r>   -10.4520     0.0000     0.0000 </r>
       <r>   -10.3755     0.0000     0.0000 </r>
       <r>   -10.2989     0.0000     0.0000 </r>
       <r>   -10.2224     0.0000     0.0000 </r>
       <r>   -10.1458     0.0000     0.0000 </r>
       <r>   -10.0693     0.0000     0.0000 </r>
       <r>    -9.9927     0.0000     0.0000 </r>
       <r>    -9.9161     0.0000     0.0000 </r>
       <r>    -9.8396     0.0000     0.0000 </r>
       <r>    -9.7630     0.0000     0.0000 </r>
       <r>    -9.6865     0.0000     0.0000 </r>
       <r>    -9.6099     0.0000     0.0000 </r>
       <r>    -9.5334     0.0000     0.0000 </r>
       <r>    -9.4568     0.0000     0.0000 </r>
       <r>    -9.3803     0.0000     0.0000 </r>
       <r>    -9.3037    -0.0001     0.0000 </r>
       <r>    -9.2272    -0.0003     0.0000 </r>
       <r>    -9.1506    -0.0012    -0.0001 </r>
       <r>    -9.0741    -0.0032    -0.0004 </r>
       <r>    -8.9975    -0.0055    -0.0008 </r>
       <r>    -8.9209    -0.0041    -0.0011 </r>
       <r>    -8.8444     0.0100    -0.0003 </r>
       <r>    -8.7678     0.0537     0.0038 </r>
       <r>    -8.6913     0.1426     0.0147 </r>
       <r>    -8.6147     0.2499     0.0338 </r>
       <r>    -8.5382     0.2916     0.0562 </r>
       <r>    -8.4616     0.2206     0.0730 </r>
       <r>    -8.3851     0.1209     0.0823 </r>
       <r>    -8.3085     0.1205     0.0915 </r>
       <r>    -8.2320     0.2333     0.1094 </r>
       <r>    -8.1554     0.3601     0.1369 </r>
       <r>    -8.0789     0.4156     0.1688 </r>
       <r>    -8.0023     0.3761     0.1976 </r>
       <r>    -7.9257     0.2522     0.2169 </r>
       <r>    -7.8492     0.0944     0.2241 </r>
       <r>    -7.7726    -0.0169     0.2228 </r>
       <r>    -7.6961    -0.0088     0.2221 </r>
       <r>    -7.6195     0.1592     0.2343 </r>
       <r>    -7.5430     0.4275     0.2670 </r>
       <r>    -7.4664     0.6128     0.3140 </r>
       <r>    -7.3899     0.6048     0.3603 </r>
       <r>    -7.3133     0.5218     0.4002 </r>
       <r>    -7.2368     0.5017     0.4386 </r>
       <r>    -7.1602     0.4884     0.4760 </r>
       <r>    -7.0837     0.3930     0.5061 </r>
       <r>    -7.0071     0.2851     0.5279 </r>
       <r>    -6.9305     0.2766     0.5491 </r>
       <r>    -6.8540     0.3683     0.5773 </r>
       <r>    -6.7774     0.5040     0.6159 </r>
       <r>    -6.7009     0.6472     0.6654 </r>
       <r>    -6.6243     0.7586     0.7235 </r>
       <r>    -6.5478     0.7760     0.7829 </r>
       <r>    -6.4712     0.6683     0.8341 </r>
       <r>    -6.3947     0.5297     0.8746 </r>
       <r>    -6.3181     0.5189     0.9143 </r>
       <r>    -6.2416     0.6304     0.9626 </r>
       <r>    -6.1650     0.6961     1.0159 </r>
       <r>    -6.0885     0.6351     1.0645 </r>
       <r>    -6.0119     0.5029     1.1030 </r>
       <r>    -5.9353     0.3511     1.1299 </r>
       <r>    -5.8588     0.2399     1.1482 </r>
       <r>    -5.7822     0.3084     1.1718 </r>
       <r>    -5.7057     0.6516     1.2217 </r>
       <r>    -5.6291     1.1636     1.3108 </r>
       <r>    -5.5526     1.5951     1.4329 </r>
       <r>    -5.4760     1.7205     1.5646 </r>
       <r>    -5.3995     1.4957     1.6791 </r>
       <r>    -5.3229     1.1532     1.7674 </r>
       <r>    -5.2464     0.9700     1.8417 </r>
       <r>    -5.1698     0.8834     1.9093 </r>
       <r>    -5.0933     0.6537     1.9593 </r>
       <r>    -5.0167     0.4837     1.9964 </r>
       <r>    -4.9401     1.0295     2.0752 </r>
       <r>    -4.8636     2.4517     2.2629 </r>
       <r>    -4.7870     3.8218     2.5554 </r>
       <r>    -4.7105     4.1257     2.8713 </r>
       <r>    -4.6339     3.5400     3.1423 </r>
       <r>    -4.5574     2.9672     3.3694 </r>
       <r>    -4.4808     2.8606     3.5884 </r>
       <r>    -4.4043     3.2004     3.8334 </r>
       <r>    -4.3277     3.9785     4.1380 </r>
       <r>    -4.2512     5.1631     4.5332 </r>
       <r>    -4.1746     6.4848     5.0297 </r>
       <r>    -4.0981     7.5164     5.6051 </r>
       <r>    -4.0215     7.9935     6.2170 </r>
       <r>    -3.9449     7.9399     6.8249 </r>
       <r>    -3.8684     7.4841     7.3978 </r>
       <r>    -3.7918     6.9116     7.9269 </r>
       <r>    -3.7153     6.7626     8.4446 </r>
       <r>    -3.6387     7.3197     9.0050 </r>
       <r>    -3.5622     8.1950     9.6323 </r>
       <r>    -3.4856     8.8164    10.3072 </r>
       <r>    -3.4091     8.9955    10.9959 </r>
       <r>    -3.3325     8.8530    11.6736 </r>
       <r>    -3.2560     8.6473    12.3356 </r>
       <r>    -3.1794     8.8056    13.0097 </r>
       <r>    -3.1029     9.6559    13.7489 </r>
       <r>    -3.0263    10.9955    14.5906 </r>
       <r>    -2.9497    12.4470    15.5435 </r>
       <r>    -2.8732    14.1153    16.6241 </r>
       <r>    -2.7966    16.0900    17.8558 </r>
       <r>    -2.7201    17.6817    19.2094 </r>
       <r>    -2.6435    18.0811    20.5936 </r>
       <r>    -2.5670    17.3158    21.9192 </r>
       <r>    -2.4904    16.0288    23.1463 </r>
       <r>    -2.4139    14.9946    24.2942 </r>
       <r>    -2.3373    14.7273    25.4216 </r>
       <r>    -2.2608    14.7448    26.5504 </r>
       <r>    -2.1842    14.0706    27.6275 </r>
       <r>    -2.1077    13.0279    28.6249 </r>
       <r>    -2.0311    13.1057    29.6282 </r>
       <r>    -1.9545    14.6648    30.7508 </r>
       <r>    -1.8780    16.3664    32.0037 </r>
       <r>    -1.8014    17.4478    33.3394 </r>
       <r>    -1.7249    18.9057    34.7867 </r>
       <r>    -1.6483    21.2683    36.4149 </r>
       <r>    -1.5718    22.6537    38.1491 </r>
       <r>    -1.4952    20.6208    39.7277 </r>
       <r>    -1.4187    15.2646    40.8963 </r>
       <r>    -1.3421     9.2637    41.6055 </r>
       <r>    -1.2656     5.1147    41.9970 </r>
       <r>    -1.1890     3.1866    42.2409 </r>
       <r>    -1.1125     2.3386    42.4200 </r>
       <r>    -1.0359     1.5540    42.5389 </r>
       <r>    -0.9593     0.7555    42.5968 </r>
       <r>    -0.8828     0.4588    42.6319 </r>
       <r>    -0.8062     0.9426    42.7041 </r>
       <r>    -0.7297     1.8252    42.8438 </r>
       <r>    -0.6531     2.3853    43.0264 </r>
       <r>    -0.5766     2.2077    43.1954 </r>
       <r>    -0.5000     1.4793    43.3086 </r>
       <r>    -0.4235     0.7058    43.3627 </r>
       <r>    -0.3469     0.2955    43.3853 </r>
       <r>    -0.2704     0.4421    43.4191 </r>
       <r>    -0.1938     1.1276    43.5055 </r>
       <r>    -0.1173     2.0019    43.6587 </r>
       <r>    -0.0407     2.4684    43.8477 </r>
       <r>     0.0359     2.1914    44.0155 </r>
       <r>     0.1124     1.4445    44.1260 </r>
       <r>     0.1890     0.8352    44.1900 </r>
       <r>     0.2655     0.7756    44.2494 </r>
       <r>     0.3421     1.2113    44.3421 </r>
       <r>     0.4186     1.7519    44.4762 </r>
       <r>     0.4952     2.0135    44.6303 </r>
       <r>     0.5717     1.8448    44.7716 </r>
       <r>     0.6483     1.3395    44.8741 </r>
       <r>     0.7248     0.7387    44.9307 </r>
       <r>     0.8014     0.2677    44.9512 </r>
       <r>     0.8779     0.0325    44.9536 </r>
       <r>     0.9545     0.0675    44.9588 </r>
       <r>     1.0311     0.4170    44.9907 </r>
       <r>     1.1076     1.1760    45.0808 </r>
       <r>     1.1842     2.3364    45.2596 </r>
       <r>     1.2607     3.4217    45.5216 </r>
       <r>     1.3373     3.6153    45.7983 </r>
       <r>     1.4138     2.6656    46.0024 </r>
       <r>     1.4904     1.3214    46.1035 </r>
       <r>     1.5669     0.4974    46.1416 </r>
       <r>     1.6435     0.3408    46.1677 </r>
       <r>     1.7200     0.3977    46.1982 </r>
       <r>     1.7966     0.3640    46.2260 </r>
       <r>     1.8731     0.3308    46.2513 </r>
       <r>     1.9497     0.4647    46.2869 </r>
       <r>     2.0263     0.7982    46.3480 </r>
       <r>     2.1028     1.2758    46.4457 </r>
       <r>     2.1794     1.7570    46.5802 </r>
       <r>     2.2559     2.0510    46.7372 </r>
       <r>     2.3325     2.0578    46.8947 </r>
       <r>     2.4090     1.7725    47.0304 </r>
       <r>     2.4856     1.2640    47.1272 </r>
       <r>     2.5621     0.7641    47.1857 </r>
       <r>     2.6387     0.5442    47.2274 </r>
       <r>     2.7152     0.6388    47.2763 </r>
       <r>     2.7918     0.8732    47.3431 </r>
       <r>     2.8683     1.1326    47.4298 </r>
       <r>     2.9449     1.4002    47.5370 </r>
       <r>     3.0215     1.5445    47.6552 </r>
       <r>     3.0980     1.3803    47.7609 </r>
       <r>     3.1746     0.9882    47.8366 </r>
       <r>     3.2511     0.7003    47.8902 </r>
       <r>     3.3277     0.7878    47.9505 </r>
       <r>     3.4042     1.2150    48.0435 </r>
       <r>     3.4808     1.5820    48.1646 </r>
       <r>     3.5573     1.4686    48.2770 </r>
       <r>     3.6339     0.9154    48.3471 </r>
       <r>     3.7104     0.3318    48.3725 </r>
       <r>     3.7870     0.0081    48.3731 </r>
       <r>     3.8635    -0.0466    48.3696 </r>
       <r>     3.9401     0.0623    48.3743 </r>
       <r>     4.0167     0.2278    48.3918 </r>
       <r>     4.0932     0.3595    48.4193 </r>
       <r>     4.1698     0.4428    48.4532 </r>
       <r>     4.2463     0.5702    48.4968 </r>
       <r>     4.3229     0.8425    48.5613 </r>
       <r>     4.3994     1.2362    48.6560 </r>
       <r>     4.4760     1.6378    48.7813 </r>
       <r>     4.5525     2.0094    48.9352 </r>
       <r>     4.6291     2.3488    49.1150 </r>
       <r>     4.7056     2.4812    49.3049 </r>
       <r>     4.7822     2.2313    49.4757 </r>
       <r>     4.8587     1.7955    49.6132 </r>
       <r>     4.9353     1.5125    49.7290 </r>
       <r>     5.0119     1.3736    49.8341 </r>
       <r>     5.0884     1.2009    49.9261 </r>
       <r>     5.1650     1.0686    50.0079 </r>
       <r>     5.2415     1.1554    50.0963 </r>
       <r>     5.3181     1.4000    50.2035 </r>
       <r>     5.3946     1.5563    50.3226 </r>
       <r>     5.4712     1.5506    50.4413 </r>
       <r>     5.5477     1.6613    50.5685 </r>
       <r>     5.6243     2.1100    50.7300 </r>
       <r>     5.7008     2.5905    50.9284 </r>
       <r>     5.7774     2.6354    51.1301 </r>
       <r>     5.8539     2.2792    51.3046 </r>
       <r>     5.9305     1.9246    51.4519 </r>
       <r>     6.0071     1.8097    51.5905 </r>
       <r>     6.0836     2.0270    51.7456 </r>
       <r>     6.1602     2.7243    51.9542 </r>
       <r>     6.2367     3.7637    52.2423 </r>
       <r>     6.3133     4.5163    52.5881 </r>
       <r>     6.3898     4.6012    52.9403 </r>
       <r>     6.4664     4.5466    53.2884 </r>
       <r>     6.5429     5.1658    53.6838 </r>
       <r>     6.6195     6.4759    54.1796 </r>
       <r>     6.6960     7.6699    54.7667 </r>
       <r>     6.7726     8.1437    55.3902 </r>
       <r>     6.8491     8.0942    56.0098 </r>
       <r>     6.9257     7.9645    56.6195 </r>
       <r>     7.0023     7.8913    57.2236 </r>
       <r>     7.0788     7.7676    57.8183 </r>
       <r>     7.1554     7.3240    58.3789 </r>
       <r>     7.2319     6.3724    58.8668 </r>
       <r>     7.3085     5.2513    59.2688 </r>
       <r>     7.3850     4.5774    59.6192 </r>
       <r>     7.4616     4.4968    59.9634 </r>
       <r>     7.5381     4.6361    60.3184 </r>
       <r>     7.6147     4.6797    60.6766 </r>
       <r>     7.6912     4.5981    61.0286 </r>
       <r>     7.7678     4.4203    61.3670 </r>
       <r>     7.8443     4.0918    61.6802 </r>
       <r>     7.9209     3.6675    61.9610 </r>
       <r>     7.9975     3.4771    62.2272 </r>
       <r>     8.0740     3.7498    62.5143 </r>
       <r>     8.1506     4.1369    62.8309 </r>
       <r>     8.2271     3.9636    63.1344 </r>
       <r>     8.3037     2.9602    63.3610 </r>
       <r>     8.3802     1.5805    63.4820 </r>
       <r>     8.4568     0.5511    63.5242 </r>
       <r>     8.5333     0.1641    63.5367 </r>
       <r>     8.6099     0.1467    63.5480 </r>
       <r>     8.6864     0.1524    63.5596 </r>
       <r>     8.7630     0.1333    63.5698 </r>
       <r>     8.8395     0.2186    63.5866 </r>
       <r>     8.9161     0.4190    63.6186 </r>
       <r>     8.9927     0.5525    63.6609 </r>
       <r>     9.0692     0.4636    63.6964 </r>
       <r>     9.1458     0.2299    63.7140 </r>
       <r>     9.2223     0.0632    63.7189 </r>
       <r>     9.2989     0.0733    63.7245 </r>
       <r>     9.3754     0.2007    63.7398 </r>
       <r>     9.4520     0.3263    63.7648 </r>
       <r>     9.5285     0.3871    63.7945 </r>
       <r>     9.6051     0.3765    63.8233 </r>
       <r>     9.6816     0.2907    63.8455 </r>
       <r>     9.7582     0.1508    63.8571 </r>
       <r>     9.8347     0.0222    63.8588 </r>
       <r>     9.9113    -0.0413    63.8556 </r>
       <r>     9.9879    -0.0094    63.8549 </r>
       <r>    10.0644     0.1521    63.8665 </r>
       <r>    10.1410     0.4071    63.8977 </r>
       <r>    10.2175     0.5773    63.9419 </r>
       <r>    10.2941     0.5050    63.9806 </r>
       <r>    10.3706     0.2628    64.0007 </r>
       <r>    10.4472     0.0554    64.0049 </r>
       <r>    10.5237    -0.0248    64.0030 </r>
       <r>    10.6003    -0.0255    64.0011 </r>
       <r>    10.6768    -0.0107    64.0003 </r>
       <r>    10.7534    -0.0028    64.0000 </r>
       <r>    10.8299    -0.0005    64.0000 </r>
       <r>    10.9065    -0.0001    64.0000 </r>
       <r>    10.9831     0.0000    64.0000 </r>
       <r>    11.0596     0.0000    64.0000 </r>
       <r>    11.1362     0.0000    64.0000 </r>
       <r>    11.2127     0.0000    64.0000 </r>
       <r>    11.2893     0.0000    64.0000 </r>
       <r>    11.3658     0.0000    64.0000 </r>
       <r>    11.4424     0.0000    64.0000 </r>
       <r>    11.5189     0.0000    64.0000 </r>
       <r>    11.5955     0.0000    64.0000 </r>
       <r>    11.6720     0.0000    64.0000 </r>
       <r>    11.7486     0.0000    64.0000 </r>
       <r>    11.8251     0.0000    64.0000 </r>
       <r>    11.9017     0.0000    64.0000 </r>
       <r>    11.9783     0.0000    64.0000 </r>
       <r>    12.0548     0.0000    64.0000 </r>
       <r>    12.1314     0.0000    64.0000 </r>
       <r>    12.2079     0.0000    64.0000 </r>
      </set>
     </set>
    </array>
   </total>
  </dos>
 </calculation>
 <structure name="finalpos" >
  <crystal>
   <varray name="basis" >
    <v>       2.57170010       0.00000000       0.00000000 </v>
    <v>      -1.28585005       2.22715761       0.00000000 </v>
    <v>       0.00000000       0.00000000      21.29940033 </v>
   </varray>
   <i name="volume">    121.99405023 </i>
   <varray name="rec_basis" >
    <v>       0.38884783       0.22450140       0.00000000 </v>
    <v>       0.00000000       0.44900280       0.00000000 </v>
    <v>       0.00000000       0.00000000       0.04694968 </v>
   </varray>
  </crystal>
  <varray name="positions" >
   <v>       0.00000000       0.00000000       0.00000000 </v>
   <v>       0.33333001       0.66667002       0.09859000 </v>
   <v>       0.00000473       0.99999527       0.29387060 </v>
   <v>       0.66666776       0.33333227       0.19667340 </v>
  </varray>
  <varray name="selective"  type="logical" >
   <v type="logical" >  F  F  F </v>
   <v type="logical" >  F  F  F </v>
   <v type="logical" >  T  T  T </v>
   <v type="logical" >  T  T  T </v>
  </varray>
  <nose>
   <v>      -3.00000000       0.00000000       0.00010000       0.00010000 </v>
  </nose>
 </structure>
</modeling>
