Cu111                                   
           1
     2.571700    0.000000    0.000000
    -1.285850    2.227158    0.000000
     0.000000    0.000000   21.299400
   Cu
   4
Direct configuration=     1
   0.00000000  0.00000000  0.00000000
   0.33333001  0.66667002  0.09859000
   0.00000473  0.99999527  0.29387060
   0.66666776  0.33333227  0.19667340
